                         Program Version 6.0.1  -  RELEASE   -
|  1> ! HFS def2-TZVPP Opt TightOpt VeryTightSCF
|  2>
|  3> ! Freq
|  4> ! NumFreq
|  5>
|  6> %scf
|  7>    MaxIter 400          # MÃ¡ximo de iteraciones permitidas para el SCF
|  8> end
|  9>
| 10> %geom
| 11>    TolRMSD 1.0e-5
| 12>    TolMAXD 1.0e-4
| 13>    TolRMSG 1.0e-5
| 14>    TolMAXG 1.0e-4
| 15> end
| 16>
| 17>
| 18> %tddft
| 19>   nroots 10
| 20> end
| 21>
| 22> %pal
| 23>    nprocs 1
| 24> end
| 25>
| 26>
| 27> %MaxCore 4000            # Memoria mÃ¡xima por nÃºcleo (en MB)
| 28>
| 29> * xyz 0 1
| 30> N       0.00000000    0.00000000    0.11361500
| 31> H       0.00000000    0.93799100   -0.26510100
| 32> H      -0.81232400   -0.46899600   -0.26510100
| 33> H       0.81232400   -0.46899600   -0.26510100
| 34> **                         ****END OF INPUT****
 Total Charge           Charge          ....    0
 Multiplicity           Mult            ....    1
 Number of Electrons    NEL             ....   10
 Basis Dimension        Dim             ....   73

ORBITAL ENERGIES
----------------

  NO   OCC          E(Eh)            E(eV)
   0   2.0000     -12.140785      -330.3675
   1   2.0000      -0.415967       -11.3190
   2   2.0000      -0.095631        -2.6022
   3   2.0000      -0.095631        -2.6022
   4   2.0000       0.069089         1.8800
   5   0.0000       0.145348         3.9551
   6   0.0000       0.233233         6.3466
   7   0.0000       0.233233         6.3466
   8   0.0000       0.459691        12.5088
   9   0.0000       0.459691        12.5088

MULLIKEN ATOMIC CHARGES
-----------------------
   0 N :    1.050281
   1 H :   -0.350099
   2 H :   -0.350091
   3 H :   -0.350091
Sum of atomic charges:    0.0000000

LOEWDIN ATOMIC CHARGES
----------------------
   0 N :    0.897185
   1 H :   -0.299063
   2 H :   -0.299061
   3 H :   -0.299061

  Mayer bond orders larger than 0.100000
B(  0-N ,  1-H ) :   0.3047 B(  0-N ,  2-H ) :   0.3047 B(  0-N ,  3-H ) :   0.3047
B(  1-H ,  2-H ) :   0.2153 B(  1-H ,  3-H ) :   0.2153 B(  2-H ,  3-H ) :   0.2153

FINAL SINGLE POINT ENERGY       -48.773495139871
FINAL SINGLE POINT ENERGY       -48.861186173537
FINAL SINGLE POINT ENERGY       -48.912896059167
FINAL SINGLE POINT ENERGY       -48.955678594507
FINAL SINGLE POINT ENERGY       -48.983224357636
FINAL SINGLE POINT ENERGY       -49.007385265649
FINAL SINGLE POINT ENERGY       -48.978503738506
FINAL SINGLE POINT ENERGY       -48.999984284548
FINAL SINGLE POINT ENERGY       -49.005532681807
FINAL SINGLE POINT ENERGY       -49.007939562627
FINAL SINGLE POINT ENERGY       -49.015629795186
FINAL SINGLE POINT ENERGY       -49.015652871572
FINAL SINGLE POINT ENERGY       -49.015733435149
FINAL SINGLE POINT ENERGY       -49.015901381523
FINAL SINGLE POINT ENERGY       -49.005875790359
FINAL SINGLE POINT ENERGY       -49.014407252015
FINAL SINGLE POINT ENERGY       -49.014559104092
FINAL SINGLE POINT ENERGY       -49.014849613383
FINAL SINGLE POINT ENERGY       -49.016279565914

CARTESIAN COORDINATES (ANGSTROEM)
---------------------------------
  N     -0.000000    0.001176   -0.169456
  H     -0.000000    1.641684   -0.180222
  H     -1.423719   -0.821430   -0.166005
  H      1.423719   -0.821431   -0.166005

----------------------------------------------------------------------------------------------------
                     ABSORPTION SPECTRUM VIA TRANSITION ELECTRIC DIPOLE MOMENTS
----------------------------------------------------------------------------------------------------
     Transition      Energy     Energy  Wavelength fosc(D2)      D2        DX        DY        DZ
                      (eV)      (cm-1)    (nm)                 (au**2)    (au)      (au)      (au)
----------------------------------------------------------------------------------------------------
  0-1A  ->  1-1A   -0.558697   -4506.2     0.0   -0.000618337   0.04517   0.00000   0.00124   0.21254
  0-1A  ->  2-1A    2.212328   17843.6   560.4   0.000012345   0.00023   0.01509  -0.00000  -0.00000
  0-1A  ->  3-1A    2.219809   17904.0   558.5   0.000012614   0.00023  -0.00000  -0.01517  -0.00129
  0-1A  ->  4-1A    4.584932   36980.0   270.4   0.182060266   1.62078  -1.27310  -0.00022   0.00000
  0-1A  ->  5-1A    4.586499   36992.6   270.3   0.180854255   1.60949   0.00023  -1.26864   0.00730
  0-1A  ->  6-1A    5.923731   47778.1   209.3   0.000000930   0.00001  -0.00253  -0.00000   0.00000
  0-1A  ->  7-1A    7.778571   62738.4   159.4   1.030331952   5.40654  -0.00016  -2.32516   0.01340
  0-1A  ->  8-1A    7.779073   62742.5   159.4   1.032684761   5.41853   2.32777  -0.00016   0.00000
  0-1A  ->  9-1A    8.288314   66849.8   149.6   0.038237772   0.18831   0.00000   0.00234   0.43394
  0-1A  -> 10-1A    8.726235   70381.8   142.1   0.000069530   0.00033   0.00000   0.00044  -0.01803

FINAL SINGLE POINT ENERGY       -49.017426528868
                             ****ORCA TERMINATED NORMALLY****
TOTAL RUN TIME: 0 days 0 hours 6 minutes 16 seconds 111 msec
