                         Program Version 6.0.1  -  RELEASE   -
|  1> ! LDA def2-TZVPP Opt TightOpt VeryTightSCF
|  2>
|  3>
|  4> ! Freq
|  5> ! NumFreq
|  6>
|  7> %scf
|  8>    MaxIter 400          # MÃ¡ximo de iteraciones permitidas para el SCF
|  9> end
| 10>
| 11> %geom
| 12>    TolRMSD 1.0e-5
| 13>    TolMAXD 1.0e-4
| 14>    TolRMSG 1.0e-5
| 15>    TolMAXG 1.0e-4
| 16> end
| 17>
| 18>
| 19> %tddft
| 20>   nroots 10
| 21> end
| 22>
| 23> %pal
| 24>    nprocs 1
| 25> end
| 26>
| 27>
| 28> %MaxCore 4000            # Memoria mÃ¡xima por nÃºcleo (en MB)
| 29>
| 30> * xyz 0 1
| 31> N       0.00000000    0.00000000    0.11361500
| 32> H       0.00000000    0.93799100   -0.26510100
| 33> H      -0.81232400   -0.46899600   -0.26510100
| 34> H       0.81232400   -0.46899600   -0.26510100
| 35> **                         ****END OF INPUT****
 Total Charge           Charge          ....    0
 Multiplicity           Mult            ....    1
 Number of Electrons    NEL             ....   10
FINAL SINGLE POINT ENERGY       -55.865659568646
FINAL SINGLE POINT ENERGY       -55.879556596817
FINAL SINGLE POINT ENERGY       -55.884722921913
FINAL SINGLE POINT ENERGY       -55.885991096883
FINAL SINGLE POINT ENERGY       -55.886432079642
FINAL SINGLE POINT ENERGY       -55.886627176949
FINAL SINGLE POINT ENERGY       -55.886678565912
FINAL SINGLE POINT ENERGY       -55.886682593850
FINAL SINGLE POINT ENERGY       -55.886681535011
FINAL SINGLE POINT ENERGY       -55.886681404573
FINAL SINGLE POINT ENERGY       -55.886680763067
FINAL SINGLE POINT ENERGY       -55.886690826403
FINAL SINGLE POINT ENERGY       -55.886662966414
FINAL SINGLE POINT ENERGY       -55.886671977687
FINAL SINGLE POINT ENERGY       -55.886680205315
FINAL SINGLE POINT ENERGY       -55.886685852734
                    ***********************HURRAY********************

CARTESIAN COORDINATES (ANGSTROEM)
---------------------------------
  N      0.000000   -0.000696   -0.170434
  H     -0.000000    1.086984   -0.172008
  H     -0.928582   -0.543144   -0.169623
  H      0.928582   -0.543144   -0.169623

 Multiplicity           Mult            ....    1
 Number of Electrons    NEL             ....   10
 Basis Dimension        Dim             ....   73

ORBITAL ENERGIES
----------------

  NO   OCC          E(Eh)            E(eV)
   0   2.0000     -13.835812      -376.4916
   1   2.0000      -0.722068       -19.6485
   2   2.0000      -0.406675       -11.0662
   3   2.0000      -0.406425       -11.0594
   4   2.0000      -0.188763        -5.1365
   5   0.0000      -0.003424        -0.0932
   6   0.0000       0.077631         2.1124
   7   0.0000       0.079582         2.1655
   8   0.0000       0.262923         7.1545
   9   0.0000       0.264370         7.1939

----------------------------------------------------------------------------------------------------
                     ABSORPTION SPECTRUM VIA TRANSITION ELECTRIC DIPOLE MOMENTS
----------------------------------------------------------------------------------------------------
     Transition      Energy     Energy  Wavelength fosc(D2)      D2        DX        DY        DZ
                      (eV)      (cm-1)    (nm)                 (au**2)    (au)      (au)      (au)
----------------------------------------------------------------------------------------------------
  0-1A  ->  1-1A    5.408315   43621.0   229.2   0.021230465   0.16023   0.00000  -0.00058  -0.40028
  0-1A  ->  2-1A    7.316959   59015.3   169.4   0.000041500   0.00023  -0.00000   0.00000   0.01522
  0-1A  ->  3-1A    7.364006   59394.7   168.4   0.000000000   0.00000   0.00002   0.00000   0.00000
  0-1A  ->  4-1A   11.406040   91995.9   108.7   0.196235416   0.70224  -0.83800  -0.00000   0.00000
  0-1A  ->  5-1A   11.430005   92189.2   108.5   0.211071679   0.75375  -0.00000   0.86818  -0.00127
  0-1A  ->  6-1A   12.254236   98837.1   101.2   0.000000000   0.00000  -0.00002  -0.00000   0.00000
  0-1A  ->  7-1A   12.279635   99041.9   101.0   0.000138261   0.00046  -0.00000  -0.00000   0.02144
  0-1A  ->  8-1A   13.211229  106555.8    93.8   0.001153791   0.00356   0.05971  -0.00000   0.00000
  0-1A  ->  9-1A   13.583883  109561.4    91.3   0.225481793   0.67753   0.00000  -0.82312   0.00123
  0-1A  -> 10-1A   13.589300  109605.1    91.2   0.240322926   0.72184   0.84961   0.00000  -0.00000

MULLIKEN ATOMIC CHARGES
-----------------------
   0 N :    0.470383
   1 H :   -0.168509
   2 H :   -0.150937
   3 H :   -0.150937
Sum of atomic charges:   -0.0000000

LOEWDIN ATOMIC CHARGES
----------------------
   0 N :    0.628712
   1 H :   -0.214136
   2 H :   -0.207288
   3 H :   -0.207288

  Mayer bond orders larger than 0.100000
B(  0-N ,  1-H ) :   0.4134 B(  0-N ,  2-H ) :   0.4593 B(  0-N ,  3-H ) :   0.4593
B(  1-H ,  2-H ) :   0.2029 B(  1-H ,  3-H ) :   0.2029 B(  2-H ,  3-H ) :   0.1929

FINAL SINGLE POINT ENERGY       -55.886681029895

DIPOLE MOMENT
-------------

Method             : TDA/CIS
Type of density    : Electron Density
Level              : Relaxed density
State              :   1
Multiplicity       :   1
Irrep              :   0
Energy             :     0.0000000000000000 Eh
Relativity type    :
Basis              : AO
                                X                 Y                 Z
Electronic contribution:      0.000000002      -0.047876510       0.000025687
Nuclear contribution   :     -0.000000001       0.002145828       0.000037965
                        -----------------------------------------
Total Dipole Moment    :      0.000000001      -0.045730682       0.000063651
                        -----------------------------------------
Magnitude (a.u.)       :      0.045730726
Magnitude (Debye)      :      0.116238269

VIBRATIONAL FREQUENCIES
-----------------------

Scaling factor for frequencies =  1.000000000  (already applied!)

     0:       0.00 cm**-1
     1:       0.00 cm**-1
     2:       0.00 cm**-1
     3:       0.00 cm**-1
     4:       0.00 cm**-1
     5:       0.00 cm**-1
     6:     318.06 cm**-1
     7:     965.20 cm**-1
     8:    1015.11 cm**-1
     9:    2148.62 cm**-1
    10:    2383.44 cm**-1
    11:    2535.56 cm**-1

IR SPECTRUM
-----------

 Mode   freq       eps      Int      T**2         TX        TY        TZ
       cm**-1   L/(mol*cm) km/mol    a.u.
----------------------------------------------------------------------------
  6:    318.06   0.072951  368.66  0.071575  (-0.000000  0.000392  0.267534)
  7:    965.20   0.003450   17.43  0.001115  (-0.033398 -0.000000 -0.000000)
  8:   1015.11   0.002530   12.79  0.000778  ( 0.000000 -0.027889  0.000017)
  9:   2148.62   0.013030   65.85  0.001893  (-0.000000  0.043503 -0.000072)
 10:   2383.44   0.012987   65.63  0.001700  (-0.041235 -0.000000  0.000000)
 11:   2535.56   0.000573    2.90  0.000071  ( 0.000000 -0.008400  0.000010)

--------------------------
THERMOCHEMISTRY AT 298.15K
--------------------------

Temperature         ...   298.15 K
Pressure            ...     1.00 atm
Total Mass          ...    17.03 AMU
Quasi RRHO          ...     True
Cut-Off Frequency   ...     1.00 cm^-1

Throughout the following assumptions are being made:
  (1) The electronic state is orbitally nondegenerate
  (2) There are no thermally accessible electronically excited states
  (3) Hindered rotations indicated by low frequency modes are not
      treated as such but are treated as vibrations and this may
      cause some error
  (4) All equations used are the standard statistical mechanics
      equations for an ideal gas
  (5) All vibrations are strictly harmonic

freq.     318.06  E(vib)   ...       0.25
freq.     965.20  E(vib)   ...       0.03
freq.    1015.11  E(vib)   ...       0.02
freq.    2148.62  E(vib)   ...       0.00
freq.    2383.44  E(vib)   ...       0.00
freq.    2535.56  E(vib)   ...       0.00

------------
INNER ENERGY
------------

The inner energy is: U= E(el) + E(ZPE) + E(vib) + E(rot) + E(trans)
    E(el)   - is the total energy from the electronic structure calculation
              = E(kin-el) + E(nuc-el) + E(el-el) + E(nuc-nuc)
    E(ZPE)  - the the zero temperature vibrational energy from the frequency calculation
    E(vib)  - the the finite temperature correction to E(ZPE) due to population
              of excited vibrational states
    E(rot)  - is the rotational thermal energy
    E(trans)- is the translational thermal energy

Summary of contributions to the inner energy U:
Electronic energy                ...    -55.88668296 Eh
Zero point energy                ...      0.02133729 Eh      13.39 kcal/mol
Thermal vibrational correction   ...      0.00047543 Eh       0.30 kcal/mol
Thermal rotational correction    ...      0.00141627 Eh       0.89 kcal/mol
Thermal translational correction ...      0.00141627 Eh       0.89 kcal/mol
-----------------------------------------------------------------------
Total thermal energy                    -55.86203770 Eh

Summary of corrections to the electronic energy:
(perhaps to be used in another calculation)
Total thermal correction                  0.00330797 Eh       2.08 kcal/mol
Non-thermal (ZPE) correction              0.02133729 Eh      13.39 kcal/mol
-----------------------------------------------------------------------
Total correction                          0.02464527 Eh      15.47 kcal/mol

--------
ENTHALPY
--------

The enthalpy is H = U + kB*T
                kB is Boltzmann's constant
Total thermal energy              ...    -55.86203770 Eh
Thermal Enthalpy correction       ...      0.00094421 Eh       0.59 kcal/mol
-----------------------------------------------------------------------
Total Enthalpy                    ...    -55.86109349 Eh

Note: Rotational entropy computed according to Herzberg
Infrared and Raman Spectra, Chapter V,1, Van Nostrand Reinhold, 1945
Point Group:  C2v, Symmetry Number:   2
Rotational constants in cm-1:     9.697633     9.440232     4.783601

Vibrational entropy computed according to the QRRHO of S. Grimme
Chem.Eur.J. 2012 18 9955 using a reference frequency of 100.0 cm-1

-------
ENTROPY
-------

The entropy contributions are T*S = T*(S(el)+S(vib)+S(rot)+S(trans))
     S(el)   - electronic entropy
     S(vib)  - vibrational entropy
     S(rot)  - rotational entropy
     S(trans)- translational entropy
The entropies will be listed as multiplied by the temperature to get
units of energy

Electronic entropy                ...      0.00000000 Eh      0.00 kcal/mol
Vibrational entropy               ...      0.00072240 Eh      0.45 kcal/mol
Rotational entropy                ...      0.00598507 Eh      3.76 kcal/mol
Translational entropy             ...      0.01636425 Eh     10.27 kcal/mol
-----------------------------------------------------------------------
Final entropy term                ...      0.02307172 Eh     14.48 kcal/mol

In case the symmetry of your molecule has not been determined correctly
or in case you have a reason to use a different symmetry number we print
out the resulting rotational entropy values for sn=1,12:

 non-linear molecules -----------------------------------
|  sn= 1 | S(rot)=       0.00663953 Eh      4.17 kcal/mol|
|  sn= 2 | S(rot)=       0.00598507 Eh      3.76 kcal/mol|
|  sn= 3 | S(rot)=       0.00560224 Eh      3.52 kcal/mol|
|  sn= 4 | S(rot)=       0.00533062 Eh      3.35 kcal/mol|
|  sn= 5 | S(rot)=       0.00511993 Eh      3.21 kcal/mol|
|  sn= 6 | S(rot)=       0.00494778 Eh      3.10 kcal/mol|
|  sn= 7 | S(rot)=       0.00480224 Eh      3.01 kcal/mol|
|  sn= 8 | S(rot)=       0.00467616 Eh      2.93 kcal/mol|
|  sn= 9 | S(rot)=       0.00456495 Eh      2.86 kcal/mol|
|  sn=10 | S(rot)=       0.00446547 Eh      2.80 kcal/mol|
|  sn=11 | S(rot)=       0.00437548 Eh      2.75 kcal/mol|
|  sn=12 | S(rot)=       0.00429333 Eh      2.69 kcal/mol|
 linear molecules ---------------------------------------
|  Dinfh | S(rot)=       0.00384798 Eh      2.41 kcal/mol|
|  Cinfv | S(rot)=       0.00450244 Eh      2.83 kcal/mol|
 --------------------------------------------------------

-------------------
GIBBS FREE ENERGY
-------------------

The Gibbs free energy is G = H - T*S

Total enthalpy                    ...    -55.86109349 Eh
Total entropy correction          ...     -0.02307172 Eh    -14.48 kcal/mol
-----------------------------------------------------------------------
Final Gibbs free energy         ...    -55.88416521 Eh

For completeness - the Gibbs free energy minus the electronic energy
G-E(el)                           ...      0.00251775 Eh      1.58 kcal/mol

                             ****ORCA TERMINATED NORMALLY****
TOTAL RUN TIME: 0 days 0 hours 4 minutes 33 seconds 420 msec
