                         Program Version 6.0.1  -  RELEASE   -
|  1> ! HFS def2-TZVPP Opt TightOpt VeryTightSCF
|  2>
|  3> %scf
|  4>    MaxIter 400          # MÃ¡ximo de iteraciones permitidas para el SCF
|  5> end
|  6>
|  7> %geom
|  8>    TolRMSD 1.0e-5
|  9>    TolMAXD 1.0e-4
| 10>    TolRMSG 1.0e-5
| 11>    TolMAXG 1.0e-4
| 12> end
| 13>
| 14> %pal
| 15>    nprocs 1
| 16> end
| 17>
| 18>
| 19> %MaxCore 4000            # Memoria mÃ¡xima por nÃºcleo (en MB)
| 20>
| 21> * xyz 0 1
| 22> C       0.66559385    0.00000000    0.00000000
| 23> C      -0.66559385    0.00000000    0.00000000
| 24> H       1.23167063   -0.92149339    0.00000000
| 25> H       1.23167063    0.92149339    0.00000000
| 26> H      -1.23167063   -0.92149339    0.00000000
| 27> H      -1.23167063    0.92149339    0.00000000
| 28> **                         ****END OF INPUT****
 Total Charge           Charge          ....    0
 Multiplicity           Mult            ....    1
 Number of Electrons    NEL             ....   16
FINAL SINGLE POINT ENERGY       -66.767128967454
FINAL SINGLE POINT ENERGY       -66.894977160697
FINAL SINGLE POINT ENERGY       -66.978813572880
FINAL SINGLE POINT ENERGY       -67.050689885381
FINAL SINGLE POINT ENERGY       -67.077739606006
FINAL SINGLE POINT ENERGY       -67.085906125115
FINAL SINGLE POINT ENERGY       -67.087301622608
FINAL SINGLE POINT ENERGY       -67.087429072404
FINAL SINGLE POINT ENERGY       -67.087459654947
FINAL SINGLE POINT ENERGY       -67.087486323291
FINAL SINGLE POINT ENERGY       -67.087492707486
FINAL SINGLE POINT ENERGY       -67.087493793256
FINAL SINGLE POINT ENERGY       -67.087494108331
FINAL SINGLE POINT ENERGY       -67.087494357311
FINAL SINGLE POINT ENERGY       -67.087494433478
FINAL SINGLE POINT ENERGY       -67.087494441957
FINAL SINGLE POINT ENERGY       -67.087494443877
                    ***********************HURRAY********************

CARTESIAN COORDINATES (ANGSTROEM)
---------------------------------
  C      0.878909    0.000000    0.000000
  C     -0.878909   -0.000000   -0.000000
  H      1.673565   -1.303781   -0.000000
  H      1.673565    1.303781   -0.000000
  H     -1.673565   -1.303781    0.000000
  H     -1.673565    1.303781    0.000000

 Multiplicity           Mult            ....    1
 Number of Electrons    NEL             ....   16
 Basis Dimension        Dim             ....  118

ORBITAL ENERGIES
----------------

  NO   OCC          E(Eh)            E(eV)
   0   2.0000      -8.396495      -228.4802
   1   2.0000      -8.396345      -228.4762
   2   2.0000      -0.292761        -7.9664
   3   2.0000      -0.175970        -4.7884
   4   2.0000      -0.073377        -1.9967
   5   2.0000      -0.046939        -1.2773
   6   2.0000      -0.018033        -0.4907
   7   2.0000       0.022937         0.6242
   8   0.0000       0.134358         3.6561
   9   0.0000       0.143571         3.9068
  10   0.0000       0.148053         4.0287
  11   0.0000       0.177229         4.8226
  12   0.0000       0.231574         6.3015

MULLIKEN ATOMIC CHARGES
-----------------------
   0 C :    0.013125
   1 C :    0.013126
   2 H :   -0.006563
   3 H :   -0.006563
   4 H :   -0.006563
   5 H :   -0.006563
Sum of atomic charges:    0.0000000

LOEWDIN ATOMIC CHARGES
----------------------
   0 C :   -0.088061
   1 C :   -0.088061
   2 H :    0.044030
   3 H :    0.044030
   4 H :    0.044030
   5 H :    0.044030

  Mayer bond orders larger than 0.100000
B(  0-C ,  1-C ) :   2.0251 B(  0-C ,  2-H ) :   0.8544 B(  0-C ,  3-H ) :   0.8544
B(  1-C ,  4-H ) :   0.8544 B(  1-C ,  5-H ) :   0.8544

FINAL SINGLE POINT ENERGY       -67.087494444102

DIPOLE MOMENT
-------------

Method             : SCF
Type of density    : Electron Density
Multiplicity       :   1
Irrep              :   0
Energy             :   -67.0874944441015941 Eh
Relativity type    :
Basis              : AO
                                X                 Y                 Z
Electronic contribution:     -0.000000424       0.000000000       0.000000000
Nuclear contribution   :     -0.000000003      -0.000000000       0.000000000
                        -----------------------------------------
Total Dipole Moment    :     -0.000000427       0.000000000       0.000000000
                        -----------------------------------------
Magnitude (a.u.)       :      0.000000427
Magnitude (Debye)      :      0.000001086

Rotational constants in cm-1:             2.459613             0.564756             0.459296
Rotational constants in MHz :         73737.355425         16930.948173         13769.347099

                             ****ORCA TERMINATED NORMALLY****
TOTAL RUN TIME: 0 days 0 hours 0 minutes 24 seconds 533 msec
