                         Program Version 6.0.1  -  RELEASE   -
|  1> ! LDA def2-TZVPP Opt TightOpt VeryTightSCF
|  2>
|  3> ! Freq
|  4> ! NumFreq
|  5>
|  6> %scf
|  7>    MaxIter 400          # MÃ¡ximo de iteraciones permitidas para el SCF
|  8> end
|  9>
| 10> %geom
| 11>    TolRMSD 1.0e-5
| 12>    TolMAXD 1.0e-4
| 13>    TolRMSG 1.0e-5
| 14>    TolMAXG 1.0e-4
| 15> end
| 16>
| 17> %pal
| 18>    nprocs 1
| 19> end
| 20>
| 21>
| 22> %MaxCore 4000            # Memoria mÃ¡xima por nÃºcleo (en MB)
| 23>
| 24> * xyz 0 1
| 25> C       0.66559385    0.00000000    0.00000000
| 26> C      -0.66559385    0.00000000    0.00000000
| 27> H       1.23167063   -0.92149339    0.00000000
| 28> H       1.23167063    0.92149339    0.00000000
| 29> H      -1.23167063   -0.92149339    0.00000000
| 30> H      -1.23167063    0.92149339    0.00000000
| 31> **                         ****END OF INPUT****
 Total Charge           Charge          ....    0
 Multiplicity           Mult            ....    1
 Number of Electrons    NEL             ....   16
FINAL SINGLE POINT ENERGY       -77.855986828450
FINAL SINGLE POINT ENERGY       -77.856420391786
FINAL SINGLE POINT ENERGY       -77.856426884379
FINAL SINGLE POINT ENERGY       -77.856427661669
FINAL SINGLE POINT ENERGY       -77.856428090266
FINAL SINGLE POINT ENERGY       -77.856428130199
FINAL SINGLE POINT ENERGY       -77.856428132168
                    ***********************HURRAY********************

CARTESIAN COORDINATES (ANGSTROEM)
---------------------------------
  C      0.661585   -0.000000   -0.000000
  C     -0.661585   -0.000000   -0.000000
  H      1.235467   -0.931252   -0.000000
  H      1.235467    0.931252    0.000000
  H     -1.235467   -0.931252    0.000000
  H     -1.235467    0.931252   -0.000000

 Multiplicity           Mult            ....    1
 Number of Electrons    NEL             ....   16
 Basis Dimension        Dim             ....  118

ORBITAL ENERGIES
----------------

  NO   OCC          E(Eh)            E(eV)
   0   2.0000      -9.783799      -266.2307
   1   2.0000      -9.783068      -266.2108
   2   2.0000      -0.688216       -18.7273
   3   2.0000      -0.517537       -14.0829
   4   2.0000      -0.422940       -11.5088
   5   2.0000      -0.376860       -10.2549
   6   2.0000      -0.309214        -8.4141
   7   2.0000      -0.255896        -6.9633
   8   0.0000      -0.043025        -1.1708
   9   0.0000       0.041540         1.1304
  10   0.0000       0.064299         1.7497
  11   0.0000       0.071367         1.9420
  12   0.0000       0.135896         3.6979

MULLIKEN ATOMIC CHARGES
-----------------------
   0 C :   -0.282137
   1 C :   -0.282137
   2 H :    0.141069
   3 H :    0.141069
   4 H :    0.141069
   5 H :    0.141069
Sum of atomic charges:   -0.0000000

LOEWDIN ATOMIC CHARGES
----------------------
   0 C :   -0.022641
   1 C :   -0.022641
   2 H :    0.011321
   3 H :    0.011321
   4 H :    0.011321
   5 H :    0.011321

  Mayer bond orders larger than 0.100000
B(  0-C ,  1-C ) :   1.9033 B(  0-C ,  2-H ) :   0.9605 B(  0-C ,  3-H ) :   0.9605
B(  1-C ,  4-H ) :   0.9605 B(  1-C ,  5-H ) :   0.9605

FINAL SINGLE POINT ENERGY       -77.856428132269

DIPOLE MOMENT
-------------

Method             : SCF
Type of density    : Electron Density
Multiplicity       :   1
Irrep              :   0
Energy             :   -77.8564281322691158 Eh
Relativity type    :
Basis              : AO
                                X                 Y                 Z
Electronic contribution:      0.000000002      -0.000000003      -0.000000002
Nuclear contribution   :     -0.000000001       0.000000002       0.000000003
                        -----------------------------------------
Total Dipole Moment    :      0.000000001      -0.000000000       0.000000001
                        -----------------------------------------
Magnitude (a.u.)       :      0.000000001
Magnitude (Debye)      :      0.000000003

VIBRATIONAL FREQUENCIES
-----------------------

Scaling factor for frequencies =  1.000000000  (already applied!)

     0:       0.00 cm**-1
     1:       0.00 cm**-1
     2:       0.00 cm**-1
     3:       0.00 cm**-1
     4:       0.00 cm**-1
     5:       0.00 cm**-1
     6:     798.84 cm**-1
     7:     928.85 cm**-1
     8:     940.23 cm**-1
     9:    1030.32 cm**-1
    10:    1185.12 cm**-1
    11:    1325.43 cm**-1
    12:    1396.88 cm**-1
    13:    1658.07 cm**-1
    14:    3049.02 cm**-1
    15:    3063.13 cm**-1
    16:    3128.55 cm**-1
    17:    3156.56 cm**-1

IR SPECTRUM
-----------

 Mode   freq       eps      Int      T**2         TX        TY        TZ
       cm**-1   L/(mol*cm) km/mol    a.u.
----------------------------------------------------------------------------
  6:    798.84   0.000158    0.80  0.000062  (-0.000000 -0.007858  0.000000)
  7:    928.85   0.020913  105.68  0.007026  ( 0.000000  0.000000  0.083821)
  8:    940.23   0.000000    0.00  0.000000  ( 0.000000  0.000000 -0.000002)
  9:   1030.32   0.000000    0.00  0.000000  (-0.000000  0.000000 -0.000000)
 10:   1185.12   0.000000    0.00  0.000000  (-0.000000  0.000000  0.000000)
 11:   1325.43   0.000000    0.00  0.000000  (-0.000000  0.000000 -0.000000)
 12:   1396.88   0.002769   13.99  0.000619  (-0.024870  0.000000  0.000000)
 13:   1658.07   0.000000    0.00  0.000000  ( 0.000000 -0.000000 -0.000000)
 14:   3049.02   0.001884    9.52  0.000193  ( 0.013887 -0.000000  0.000000)
 15:   3063.13   0.000000    0.00  0.000000  ( 0.000000 -0.000000  0.000000)
 16:   3128.55   0.000000    0.00  0.000000  (-0.000000 -0.000000 -0.000000)
 17:   3156.56   0.001838    9.29  0.000182  ( 0.000000  0.013480 -0.000000)

--------------------------
THERMOCHEMISTRY AT 298.15K
--------------------------

Temperature         ...   298.15 K
Pressure            ...     1.00 atm
Total Mass          ...    28.05 AMU
Quasi RRHO          ...     True
Cut-Off Frequency   ...     1.00 cm^-1

Throughout the following assumptions are being made:
  (1) The electronic state is orbitally nondegenerate
  (2) There are no thermally accessible electronically excited states
  (3) Hindered rotations indicated by low frequency modes are not
      treated as such but are treated as vibrations and this may
      cause some error
  (4) All equations used are the standard statistical mechanics
      equations for an ideal gas
  (5) All vibrations are strictly harmonic

freq.     798.84  E(vib)   ...       0.05
freq.     928.85  E(vib)   ...       0.03
freq.     940.23  E(vib)   ...       0.03
freq.    1030.32  E(vib)   ...       0.02
freq.    1185.12  E(vib)   ...       0.01
freq.    1325.43  E(vib)   ...       0.01
freq.    1396.88  E(vib)   ...       0.00
freq.    1658.07  E(vib)   ...       0.00
freq.    3049.02  E(vib)   ...       0.00
freq.    3063.13  E(vib)   ...       0.00
freq.    3128.55  E(vib)   ...       0.00
freq.    3156.56  E(vib)   ...       0.00

------------
INNER ENERGY
------------

The inner energy is: U= E(el) + E(ZPE) + E(vib) + E(rot) + E(trans)
    E(el)   - is the total energy from the electronic structure calculation
              = E(kin-el) + E(nuc-el) + E(el-el) + E(nuc-nuc)
    E(ZPE)  - the the zero temperature vibrational energy from the frequency calculation
    E(vib)  - the the finite temperature correction to E(ZPE) due to population
              of excited vibrational states
    E(rot)  - is the rotational thermal energy
    E(trans)- is the translational thermal energy

Summary of contributions to the inner energy U:
Electronic energy                ...    -77.85642813 Eh
Zero point energy                ...      0.04934739 Eh      30.97 kcal/mol
Thermal vibrational correction   ...      0.00024423 Eh       0.15 kcal/mol
Thermal rotational correction    ...      0.00141627 Eh       0.89 kcal/mol
Thermal translational correction ...      0.00141627 Eh       0.89 kcal/mol
-----------------------------------------------------------------------
Total thermal energy                    -77.80400397 Eh

Summary of corrections to the electronic energy:
(perhaps to be used in another calculation)
Total thermal correction                  0.00307677 Eh       1.93 kcal/mol
Non-thermal (ZPE) correction              0.04934739 Eh      30.97 kcal/mol
-----------------------------------------------------------------------
Total correction                          0.05242416 Eh      32.90 kcal/mol

--------
ENTHALPY
--------

The enthalpy is H = U + kB*T
                kB is Boltzmann's constant
Total thermal energy              ...    -77.80400397 Eh
Thermal Enthalpy correction       ...      0.00094421 Eh       0.59 kcal/mol
-----------------------------------------------------------------------
Total Enthalpy                    ...    -77.80305976 Eh

Note: Rotational entropy computed according to Herzberg
Infrared and Raman Spectra, Chapter V,1, Van Nostrand Reinhold, 1945
Point Group:  D2h, Symmetry Number:   4
Rotational constants in cm-1:     4.821050     1.011337     0.835971

Vibrational entropy computed according to the QRRHO of S. Grimme
Chem.Eur.J. 2012 18 9955 using a reference frequency of 100.0 cm-1

-------
ENTROPY
-------

The entropy contributions are T*S = T*(S(el)+S(vib)+S(rot)+S(trans))
     S(el)   - electronic entropy
     S(vib)  - vibrational entropy
     S(rot)  - rotational entropy
     S(trans)- translational entropy
The entropies will be listed as multiplied by the temperature to get
units of energy

Electronic entropy                ...      0.00000000 Eh      0.00 kcal/mol
Vibrational entropy               ...      0.00029817 Eh      0.19 kcal/mol
Rotational entropy                ...      0.00753856 Eh      4.73 kcal/mol
Translational entropy             ...      0.01707111 Eh     10.71 kcal/mol
-----------------------------------------------------------------------
Final entropy term                ...      0.02490784 Eh     15.63 kcal/mol

In case the symmetry of your molecule has not been determined correctly
or in case you have a reason to use a different symmetry number we print
out the resulting rotational entropy values for sn=1,12:

 non-linear molecules -----------------------------------
|  sn= 1 | S(rot)=       0.00884747 Eh      5.55 kcal/mol|
|  sn= 2 | S(rot)=       0.00819302 Eh      5.14 kcal/mol|
|  sn= 3 | S(rot)=       0.00781019 Eh      4.90 kcal/mol|
|  sn= 4 | S(rot)=       0.00753856 Eh      4.73 kcal/mol|
|  sn= 5 | S(rot)=       0.00732787 Eh      4.60 kcal/mol|
|  sn= 6 | S(rot)=       0.00715573 Eh      4.49 kcal/mol|
|  sn= 7 | S(rot)=       0.00701018 Eh      4.40 kcal/mol|
|  sn= 8 | S(rot)=       0.00688411 Eh      4.32 kcal/mol|
|  sn= 9 | S(rot)=       0.00677290 Eh      4.25 kcal/mol|
|  sn=10 | S(rot)=       0.00667342 Eh      4.19 kcal/mol|
|  sn=11 | S(rot)=       0.00658343 Eh      4.13 kcal/mol|
|  sn=12 | S(rot)=       0.00650127 Eh      4.08 kcal/mol|
 linear molecules ---------------------------------------
|  Dinfh | S(rot)=       0.00549497 Eh      3.45 kcal/mol|
|  Cinfv | S(rot)=       0.00614942 Eh      3.86 kcal/mol|
 --------------------------------------------------------

-------------------
GIBBS FREE ENERGY
-------------------

The Gibbs free energy is G = H - T*S

Total enthalpy                    ...    -77.80305976 Eh
Total entropy correction          ...     -0.02490784 Eh    -15.63 kcal/mol
-----------------------------------------------------------------------
Final Gibbs free energy         ...    -77.82796760 Eh

For completeness - the Gibbs free energy minus the electronic energy
G-E(el)                           ...      0.02846053 Eh     17.86 kcal/mol

                             ****ORCA TERMINATED NORMALLY****
TOTAL RUN TIME: 0 days 0 hours 1 minutes 36 seconds 454 msec
