                         Program Version 6.0.1  -  RELEASE   -
|  1> ! PBE0 def2-TZVPP Opt TightOpt VeryTightSCF
|  2>
|  3> ! Freq
|  4> ! NumFreq
|  5>
|  6> %scf
|  7>    MaxIter 400          # MÃ¡ximo de iteraciones permitidas para el SCF
|  8> end
|  9>
| 10> %geom
| 11>    TolRMSD 1.0e-5
| 12>    TolMAXD 1.0e-4
| 13>    TolRMSG 1.0e-5
| 14>    TolMAXG 1.0e-4
| 15> end
| 16>
| 17> %tddft
| 18>   nroots 10
| 19> end
| 20>
| 21> %pal
| 22>    nprocs 1
| 23> end
| 24>
| 25>
| 26> %MaxCore 4000            # Memoria mÃ¡xima por nÃºcleo (en MB)
| 27>
| 28> * xyz 0 1
| 29> Cl     0.000000    0.000000    0.074144
| 30> H      0.000000    0.000000   -1.208014
| 31> **                         ****END OF INPUT****
 Total Charge           Charge          ....    0
 Multiplicity           Mult            ....    1
 Number of Electrons    NEL             ....   18
FINAL SINGLE POINT ENERGY      -460.374942181430
FINAL SINGLE POINT ENERGY      -460.413251106931
FINAL SINGLE POINT ENERGY      -460.436312349701
FINAL SINGLE POINT ENERGY      -460.449274448523
FINAL SINGLE POINT ENERGY      -460.455383004148
FINAL SINGLE POINT ENERGY      -460.456809800447
FINAL SINGLE POINT ENERGY      -460.457016114129
FINAL SINGLE POINT ENERGY      -460.457025811598
FINAL SINGLE POINT ENERGY      -460.457015944893
FINAL SINGLE POINT ENERGY      -460.457028164883
                    ***********************HURRAY********************

CARTESIAN COORDINATES (ANGSTROEM)
---------------------------------
  Cl     0.000000    0.000000    0.471172
  H      0.000000    0.000000   -1.605042

 Multiplicity           Mult            ....    1
 Number of Electrons    NEL             ....   18
 Basis Dimension        Dim             ....   56

ORBITAL ENERGIES
----------------

  NO   OCC          E(Eh)            E(eV)
   0   2.0000    -101.722015     -2767.9967
   1   2.0000      -9.542620      -259.6679
   2   2.0000      -7.278863      -198.0679
   3   2.0000      -7.267768      -197.7660
   4   2.0000      -7.267768      -197.7660
   5   2.0000      -0.813356       -22.1325
   6   2.0000      -0.391442       -10.6517
   7   2.0000      -0.331590        -9.0230
   8   2.0000      -0.331590        -9.0230
   9   0.0000      -0.174266        -4.7420
  10   0.0000       0.227598         6.1933
  11   0.0000       0.349458         9.5092
  12   0.0000       0.349458         9.5092
  13   0.0000       0.355356         9.6697

----------------------------------------------------------------------------------------------------
                     ABSORPTION SPECTRUM VIA TRANSITION ELECTRIC DIPOLE MOMENTS
----------------------------------------------------------------------------------------------------
     Transition      Energy     Energy  Wavelength fosc(D2)      D2        DX        DY        DZ
                      (eV)      (cm-1)    (nm)                 (au**2)    (au)      (au)      (au)
----------------------------------------------------------------------------------------------------
  0-1A  ->  1-1A    2.484438   20038.3   499.0   0.000274038   0.00450  -0.02752  -0.06119  -0.00000
  0-1A  ->  2-1A    2.484438   20038.3   499.0   0.000274038   0.00450   0.06119  -0.02752  -0.00000
  0-1A  ->  3-1A    8.291142   66872.6   149.5   1.251199460   6.15962  -0.00000  -0.00000  -2.48186
  0-1A  ->  4-1A   13.784269  111177.6    89.9   0.045829043   0.13571   0.15055   0.33621   0.00000
  0-1A  ->  5-1A   13.784269  111177.6    89.9   0.045829042   0.13571   0.33621  -0.15055   0.00000
  0-1A  ->  6-1A   15.806842  127490.8    78.4   0.026041679   0.06725   0.00000  -0.00000   0.25932
  0-1A  ->  7-1A   15.919433  128398.9    77.9   0.010447147   0.02679  -0.00000   0.00000   0.16367
  0-1A  ->  8-1A   16.299448  131463.9    76.1   0.000000000   0.00000  -0.00000  -0.00000  -0.00000
  0-1A  ->  9-1A   16.331764  131724.6    75.9   0.000000000   0.00000   0.00000  -0.00000  -0.00000
  0-1A  -> 10-1A   16.332726  131732.3    75.9   0.000000000   0.00000  -0.00000   0.00000  -0.00000

MULLIKEN ATOMIC CHARGES
-----------------------
   0 Cl:   -0.006425
   1 H :    0.006425
Sum of atomic charges:   -0.0000000

LOEWDIN ATOMIC CHARGES
----------------------
   0 Cl:    0.052602
   1 H :   -0.052602

  Mayer bond orders larger than 0.100000
B(  0-Cl,  1-H ) :   0.1364

FINAL SINGLE POINT ENERGY      -460.457025905207

DIPOLE MOMENT
-------------

Method             : TDA/CIS
Type of density    : Electron Density
Level              : Relaxed density
State              :   1
Multiplicity       :   1
Irrep              :   0
Energy             :     0.0000000000000000 Eh
Relativity type    :
Basis              : AO
                                X                 Y                 Z
Electronic contribution:      0.000000012       0.000000026       2.015855288
Nuclear contribution   :      0.000000000       0.000000000      -1.971045490
                        -----------------------------------------
Total Dipole Moment    :      0.000000012       0.000000026       0.044809799
                        -----------------------------------------
Magnitude (a.u.)       :      0.044809799
Magnitude (Debye)      :      0.113897456

VIBRATIONAL FREQUENCIES
-----------------------

Scaling factor for frequencies =  1.000000000  (already applied!)

     0:       0.00 cm**-1
     1:       0.00 cm**-1
     2:       0.00 cm**-1
     3:       0.00 cm**-1
     4:       0.00 cm**-1
     5:     904.28 cm**-1

IR SPECTRUM
-----------

 Mode   freq       eps      Int      T**2         TX        TY        TZ
       cm**-1   L/(mol*cm) km/mol    a.u.
----------------------------------------------------------------------------
  5:    904.28   0.008278   41.83  0.002857  (-0.000000 -0.000000  0.053447)

--------------------------
THERMOCHEMISTRY AT 298.15K
--------------------------

Temperature         ...   298.15 K
Pressure            ...     1.00 atm
Total Mass          ...    36.46 AMU
Quasi RRHO          ...     True
Cut-Off Frequency   ...     1.00 cm^-1
The molecule is recognized as being linear

Throughout the following assumptions are being made:
  (1) The electronic state is orbitally nondegenerate
  (2) There are no thermally accessible electronically excited states
  (3) Hindered rotations indicated by low frequency modes are not
      treated as such but are treated as vibrations and this may
      cause some error
  (4) All equations used are the standard statistical mechanics
      equations for an ideal gas
  (5) All vibrations are strictly harmonic

freq.     904.28  E(vib)   ...       0.03

------------
INNER ENERGY
------------

The inner energy is: U= E(el) + E(ZPE) + E(vib) + E(rot) + E(trans)
    E(el)   - is the total energy from the electronic structure calculation
              = E(kin-el) + E(nuc-el) + E(el-el) + E(nuc-nuc)
    E(ZPE)  - the the zero temperature vibrational energy from the frequency calculation
    E(vib)  - the the finite temperature correction to E(ZPE) due to population
              of excited vibrational states
    E(rot)  - is the rotational thermal energy
    E(trans)- is the translational thermal energy

Summary of contributions to the inner energy U:
Electronic energy                ...   -460.45702595 Eh
Zero point energy                ...      0.00206011 Eh       1.29 kcal/mol
Thermal vibrational correction   ...      0.00005313 Eh       0.03 kcal/mol
Thermal rotational correction    ...      0.00094418 Eh       0.59 kcal/mol
Thermal translational correction ...      0.00141627 Eh       0.89 kcal/mol
-----------------------------------------------------------------------
Total thermal energy                   -460.45255226 Eh

Summary of corrections to the electronic energy:
(perhaps to be used in another calculation)
Total thermal correction                  0.00241359 Eh       1.51 kcal/mol
Non-thermal (ZPE) correction              0.00206011 Eh       1.29 kcal/mol
-----------------------------------------------------------------------
Total correction                          0.00447369 Eh       2.81 kcal/mol

--------
ENTHALPY
--------

The enthalpy is H = U + kB*T
                kB is Boltzmann's constant
Total thermal energy              ...   -460.45255226 Eh
Thermal Enthalpy correction       ...      0.00094421 Eh       0.59 kcal/mol
-----------------------------------------------------------------------
Total Enthalpy                    ...   -460.45160805 Eh

Note: Rotational entropy computed according to Herzberg
Infrared and Raman Spectra, Chapter V,1, Van Nostrand Reinhold, 1945
Point Group:  C(inf)v, Symmetry Number:   1
Rotational constants in cm-1:     0.000000     3.989954     3.989954

Vibrational entropy computed according to the QRRHO of S. Grimme
Chem.Eur.J. 2012 18 9955 using a reference frequency of 100.0 cm-1

-------
ENTROPY
-------

The entropy contributions are T*S = T*(S(el)+S(vib)+S(rot)+S(trans))
     S(el)   - electronic entropy
     S(vib)  - vibrational entropy
     S(rot)  - rotational entropy
     S(trans)- translational entropy
The entropies will be listed as multiplied by the temperature to get
units of energy

Electronic entropy                ...      0.00000000 Eh      0.00 kcal/mol
Vibrational entropy               ...      0.00006527 Eh      0.04 kcal/mol
Rotational entropy                ...      0.00467372 Eh      2.93 kcal/mol
Translational entropy             ...      0.01744233 Eh     10.95 kcal/mol
-----------------------------------------------------------------------
Final entropy term                ...      0.02218132 Eh     13.92 kcal/mol

-------------------
GIBBS FREE ENERGY
-------------------

The Gibbs free energy is G = H - T*S

Total enthalpy                    ...   -460.45160805 Eh
Total entropy correction          ...     -0.02218132 Eh    -13.92 kcal/mol
-----------------------------------------------------------------------
Final Gibbs free energy         ...   -460.47378937 Eh

For completeness - the Gibbs free energy minus the electronic energy
G-E(el)                           ...     -0.01676342 Eh    -10.52 kcal/mol

                             ****ORCA TERMINATED NORMALLY****
TOTAL RUN TIME: 0 days 0 hours 3 minutes 40 seconds 230 msec
