                         Program Version 6.0.1  -  RELEASE   -
|  1> ! HFS def2-TZVPP Opt TightOpt VeryTightSCF
|  2>
|  3> ! Freq
|  4> ! NumFreq
|  5>
|  6> %scf
|  7>    MaxIter 400          # MÃ¡ximo de iteraciones permitidas para el SCF
|  8> end
|  9>
| 10> %geom
| 11>    TolRMSD 1.0e-5
| 12>    TolMAXD 1.0e-4
| 13>    TolRMSG 1.0e-5
| 14>    TolMAXG 1.0e-4
| 15> end
| 16>
| 17> %pal
| 18>    nprocs 1
| 19> end
| 20>
| 21>
| 22> %MaxCore 4000            # Memoria mÃ¡xima por nÃºcleo (en MB)
| 23>
| 24> * xyz 0 1
| 25> N       0.00000000    0.00000000    0.11361500
| 26> H       0.00000000    0.93799100   -0.26510100
| 27> H      -0.81232400   -0.46899600   -0.26510100
| 28> H       0.81232400   -0.46899600   -0.26510100
| 29> **                         ****END OF INPUT****
 Total Charge           Charge          ....    0
 Multiplicity           Mult            ....    1
 Number of Electrons    NEL             ....   10
FINAL SINGLE POINT ENERGY       -48.865099567906
FINAL SINGLE POINT ENERGY       -48.956676153191
FINAL SINGLE POINT ENERGY       -49.010977574824
FINAL SINGLE POINT ENERGY       -49.050450270797
FINAL SINGLE POINT ENERGY       -49.069263559800
FINAL SINGLE POINT ENERGY       -49.075041410903
FINAL SINGLE POINT ENERGY       -49.075807202179
FINAL SINGLE POINT ENERGY       -49.075918775892
FINAL SINGLE POINT ENERGY       -49.075950289477
FINAL SINGLE POINT ENERGY       -49.075954532405
FINAL SINGLE POINT ENERGY       -49.075954825141
FINAL SINGLE POINT ENERGY       -49.075954848576
FINAL SINGLE POINT ENERGY       -49.075954858179
FINAL SINGLE POINT ENERGY       -49.075954861507
FINAL SINGLE POINT ENERGY       -49.075954862699
FINAL SINGLE POINT ENERGY       -49.075954863688
FINAL SINGLE POINT ENERGY       -49.075954864397
                    ***********************HURRAY********************

CARTESIAN COORDINATES (ANGSTROEM)
---------------------------------
  N     -0.000000    0.000550    0.469408
  H      0.000000    1.288853   -0.384797
  H     -1.116342   -0.644702   -0.383149
  H      1.116342   -0.644702   -0.383149

 Multiplicity           Mult            ....    1
 Number of Electrons    NEL             ....   10
 Basis Dimension        Dim             ....   73

ORBITAL ENERGIES
----------------

  NO   OCC          E(Eh)            E(eV)
   0   2.0000     -12.257820      -333.5522
   1   2.0000      -0.350908        -9.5487
   2   2.0000      -0.041496        -1.1292
   3   2.0000      -0.041495        -1.1291
   4   2.0000      -0.005434        -0.1479
   5   0.0000       0.111794         3.0421
   6   0.0000       0.174134         4.7384
   7   0.0000       0.174135         4.7385
   8   0.0000       0.429642        11.6912
   9   0.0000       0.429642        11.6912

MULLIKEN ATOMIC CHARGES
-----------------------
   0 N :    0.010017
   1 H :   -0.003338
   2 H :   -0.003340
   3 H :   -0.003340
Sum of atomic charges:   -0.0000000

LOEWDIN ATOMIC CHARGES
----------------------
   0 N :   -0.028211
   1 H :    0.009403
   2 H :    0.009404
   3 H :    0.009404

  Mayer bond orders larger than 0.100000
B(  0-N ,  1-H ) :   0.9809 B(  0-N ,  2-H ) :   0.9809 B(  0-N ,  3-H ) :   0.9809

FINAL SINGLE POINT ENERGY       -49.075954864488

DIPOLE MOMENT
-------------

Method             : SCF
Type of density    : Electron Density
Multiplicity       :   1
Irrep              :   0
Energy             :   -49.0759548644878691 Eh
Relativity type    :
Basis              : AO
                                X                 Y                 Z
Electronic contribution:     -0.000000000       0.001613453       1.871794458
Nuclear contribution   :      0.000000000      -0.001698721      -1.973925177
                        -----------------------------------------
Total Dipole Moment    :     -0.000000000      -0.000085268      -0.102130719
                        -----------------------------------------
Magnitude (a.u.)       :      0.102130755
Magnitude (Debye)      :      0.259595748

VIBRATIONAL FREQUENCIES
-----------------------

Scaling factor for frequencies =  1.000000000  (already applied!)

     0:       0.00 cm**-1
     1:       0.00 cm**-1
     2:       0.00 cm**-1
     3:       0.00 cm**-1
     4:       0.00 cm**-1
     5:       0.00 cm**-1
     6:     841.65 cm**-1
     7:     854.46 cm**-1
     8:     855.63 cm**-1
     9:    1267.71 cm**-1
    10:    1268.26 cm**-1
    11:    1273.72 cm**-1

IR SPECTRUM
-----------

 Mode   freq       eps      Int      T**2         TX        TY        TZ
       cm**-1   L/(mol*cm) km/mol    a.u.
----------------------------------------------------------------------------
  6:    841.65   0.000830    4.19  0.000308  (-0.000000 -0.000640 -0.017530)
  7:    854.46   0.000147    0.74  0.000054  (-0.000000  0.007244  0.001143)
  8:    855.63   0.000412    2.08  0.000150  (-0.012264 -0.000000 -0.000000)
  9:   1267.71   0.009757   49.31  0.002402  (-0.000000  0.002099 -0.048963)
 10:   1268.26   0.022863  115.54  0.005626  (-0.075005 -0.000000  0.000000)
 11:   1273.72   0.021893  110.64  0.005364  ( 0.000000 -0.073229 -0.001191)

--------------------------
THERMOCHEMISTRY AT 298.15K
--------------------------

Temperature         ...   298.15 K
Pressure            ...     1.00 atm
Total Mass          ...    17.03 AMU
Quasi RRHO          ...     True
Cut-Off Frequency   ...     1.00 cm^-1

Throughout the following assumptions are being made:
  (1) The electronic state is orbitally nondegenerate
  (2) There are no thermally accessible electronically excited states
  (3) Hindered rotations indicated by low frequency modes are not
      treated as such but are treated as vibrations and this may
      cause some error
  (4) All equations used are the standard statistical mechanics
      equations for an ideal gas
  (5) All vibrations are strictly harmonic

freq.     841.65  E(vib)   ...       0.04
freq.     854.46  E(vib)   ...       0.04
freq.     855.63  E(vib)   ...       0.04
freq.    1267.71  E(vib)   ...       0.01
freq.    1268.26  E(vib)   ...       0.01
freq.    1273.72  E(vib)   ...       0.01

------------
INNER ENERGY
------------

The inner energy is: U= E(el) + E(ZPE) + E(vib) + E(rot) + E(trans)
    E(el)   - is the total energy from the electronic structure calculation
              = E(kin-el) + E(nuc-el) + E(el-el) + E(nuc-nuc)
    E(ZPE)  - the the zero temperature vibrational energy from the frequency calculation
    E(vib)  - the the finite temperature correction to E(ZPE) due to population
              of excited vibrational states
    E(rot)  - is the rotational thermal energy
    E(trans)- is the translational thermal energy

Summary of contributions to the inner energy U:
Electronic energy                ...    -49.07595486 Eh
Zero point energy                ...      0.01449243 Eh       9.09 kcal/mol
Thermal vibrational correction   ...      0.00023302 Eh       0.15 kcal/mol
Thermal rotational correction    ...      0.00141627 Eh       0.89 kcal/mol
Thermal translational correction ...      0.00141627 Eh       0.89 kcal/mol
-----------------------------------------------------------------------
Total thermal energy                    -49.05839687 Eh

Summary of corrections to the electronic energy:
(perhaps to be used in another calculation)
Total thermal correction                  0.00306557 Eh       1.92 kcal/mol
Non-thermal (ZPE) correction              0.01449243 Eh       9.09 kcal/mol
-----------------------------------------------------------------------
Total correction                          0.01755800 Eh      11.02 kcal/mol

--------
ENTHALPY
--------

The enthalpy is H = U + kB*T
                kB is Boltzmann's constant
Total thermal energy              ...    -49.05839687 Eh
Thermal Enthalpy correction       ...      0.00094421 Eh       0.59 kcal/mol
-----------------------------------------------------------------------
Total Enthalpy                    ...    -49.05745266 Eh

Note: Rotational entropy computed according to Herzberg
Infrared and Raman Spectra, Chapter V,1, Van Nostrand Reinhold, 1945
Point Group:  C3v, Symmetry Number:   3
Rotational constants in cm-1:     3.900041     3.900027     3.354927

Vibrational entropy computed according to the QRRHO of S. Grimme
Chem.Eur.J. 2012 18 9955 using a reference frequency of 100.0 cm-1

-------
ENTROPY
-------

The entropy contributions are T*S = T*(S(el)+S(vib)+S(rot)+S(trans))
     S(el)   - electronic entropy
     S(vib)  - vibrational entropy
     S(rot)  - rotational entropy
     S(trans)- translational entropy
The entropies will be listed as multiplied by the temperature to get
units of energy

Electronic entropy                ...      0.00000000 Eh      0.00 kcal/mol
Vibrational entropy               ...      0.00028651 Eh      0.18 kcal/mol
Rotational entropy                ...      0.00661707 Eh      4.15 kcal/mol
Translational entropy             ...      0.01636425 Eh     10.27 kcal/mol
-----------------------------------------------------------------------
Final entropy term                ...      0.02326784 Eh     14.60 kcal/mol

In case the symmetry of your molecule has not been determined correctly
or in case you have a reason to use a different symmetry number we print
out the resulting rotational entropy values for sn=1,12:

 non-linear molecules -----------------------------------
|  sn= 1 | S(rot)=       0.00765436 Eh      4.80 kcal/mol|
|  sn= 2 | S(rot)=       0.00699990 Eh      4.39 kcal/mol|
|  sn= 3 | S(rot)=       0.00661707 Eh      4.15 kcal/mol|
|  sn= 4 | S(rot)=       0.00634545 Eh      3.98 kcal/mol|
|  sn= 5 | S(rot)=       0.00613476 Eh      3.85 kcal/mol|
|  sn= 6 | S(rot)=       0.00596262 Eh      3.74 kcal/mol|
|  sn= 7 | S(rot)=       0.00581707 Eh      3.65 kcal/mol|
|  sn= 8 | S(rot)=       0.00569099 Eh      3.57 kcal/mol|
|  sn= 9 | S(rot)=       0.00557978 Eh      3.50 kcal/mol|
|  sn=10 | S(rot)=       0.00548030 Eh      3.44 kcal/mol|
|  sn=11 | S(rot)=       0.00539031 Eh      3.38 kcal/mol|
|  sn=12 | S(rot)=       0.00530816 Eh      3.33 kcal/mol|
 linear molecules ---------------------------------------
|  Dinfh | S(rot)=       0.00418294 Eh      2.62 kcal/mol|
|  Cinfv | S(rot)=       0.00483740 Eh      3.04 kcal/mol|
 --------------------------------------------------------

-------------------
GIBBS FREE ENERGY
-------------------

The Gibbs free energy is G = H - T*S

Total enthalpy                    ...    -49.05745266 Eh
Total entropy correction          ...     -0.02326784 Eh    -14.60 kcal/mol
-----------------------------------------------------------------------
Final Gibbs free energy         ...    -49.08072050 Eh

For completeness - the Gibbs free energy minus the electronic energy
G-E(el)                           ...     -0.00476563 Eh     -2.99 kcal/mol

                             ****ORCA TERMINATED NORMALLY****
TOTAL RUN TIME: 0 days 0 hours 0 minutes 46 seconds 15 msec
