                         Program Version 6.0.1  -  RELEASE   -
|  1> ! B3LYP def2-TZVPP Opt TightOpt VeryTightSCF
|  2>
|  3> ! Freq
|  4> ! NumFreq
|  5>
|  6> %scf
|  7>    MaxIter 400          # MÃ¡ximo de iteraciones permitidas para el SCF
|  8> end
|  9>
| 10> %geom
| 11>    TolRMSD 1.0e-5
| 12>    TolMAXD 1.0e-4
| 13>    TolRMSG 1.0e-5
| 14>    TolMAXG 1.0e-4
| 15> end
| 16>
| 17> %pal
| 18>    nprocs 1
| 19> end
| 20>
| 21>
| 22> %MaxCore 4000            # Memoria mÃ¡xima por nÃºcleo (en MB)
| 23>
| 24> * xyz 0 1
| 25> N       0.00000000    0.00000000    0.11361500
| 26> H       0.00000000    0.93799100   -0.26510100
| 27> H      -0.81232400   -0.46899600   -0.26510100
| 28> H       0.81232400   -0.46899600   -0.26510100
| 29> **                         ****END OF INPUT****
 Total Charge           Charge          ....    0
 Multiplicity           Mult            ....    1
 Number of Electrons    NEL             ....   10
FINAL SINGLE POINT ENERGY       -56.552279504215
FINAL SINGLE POINT ENERGY       -56.552289056120
FINAL SINGLE POINT ENERGY       -56.552289389568
FINAL SINGLE POINT ENERGY       -56.552289626460
FINAL SINGLE POINT ENERGY       -56.552289630733
                    ***********************HURRAY********************

CARTESIAN COORDINATES (ANGSTROEM)
---------------------------------
  N     -0.000000    0.000009    0.111688
  H      0.000000    0.940707   -0.264456
  H     -0.814669   -0.470359   -0.264460
  H      0.814669   -0.470359   -0.264460

 Multiplicity           Mult            ....    1
 Number of Electrons    NEL             ....   10
 Basis Dimension        Dim             ....   73

ORBITAL ENERGIES
----------------

  NO   OCC          E(Eh)            E(eV)
   0   2.0000     -14.288589      -388.8123
   1   2.0000      -0.849623       -23.1194
   2   2.0000      -0.460141       -12.5211
   3   2.0000      -0.460130       -12.5208
   4   2.0000      -0.265930        -7.2363
   5   0.0000       0.025549         0.6952
   6   0.0000       0.109610         2.9826
   7   0.0000       0.109615         2.9828
   8   0.0000       0.299492         8.1496
   9   0.0000       0.299494         8.1496

MULLIKEN ATOMIC CHARGES
-----------------------
   0 N :   -0.428618
   1 H :    0.142845
   2 H :    0.142887
   3 H :    0.142887
Sum of atomic charges:   -0.0000000

LOEWDIN ATOMIC CHARGES
----------------------
   0 N :    0.177976
   1 H :   -0.059332
   2 H :   -0.059322
   3 H :   -0.059322

  Mayer bond orders larger than 0.100000
B(  0-N ,  1-H ) :   1.0053 B(  0-N ,  2-H ) :   1.0053 B(  0-N ,  3-H ) :   1.0053

FINAL SINGLE POINT ENERGY       -56.552289630490

DIPOLE MOMENT
-------------

Method             : SCF
Type of density    : Electron Density
Multiplicity       :   1
Irrep              :   0
Energy             :   -56.5522896304896889 Eh
Relativity type    :
Basis              : AO
                                X                 Y                 Z
Electronic contribution:     -0.000000004       0.000040563       0.240881240
Nuclear contribution   :      0.000000003      -0.000029912      -0.870332037
                        -----------------------------------------
Total Dipole Moment    :     -0.000000001       0.000010651      -0.629450797
                        -----------------------------------------
Magnitude (a.u.)       :      0.629450797
Magnitude (Debye)      :      1.599936777

VIBRATIONAL FREQUENCIES
-----------------------

Scaling factor for frequencies =  1.000000000  (already applied!)

     0:       0.00 cm**-1
     1:       0.00 cm**-1
     2:       0.00 cm**-1
     3:       0.00 cm**-1
     4:       0.00 cm**-1
     5:       0.00 cm**-1
     6:    1034.82 cm**-1
     7:    1667.88 cm**-1
     8:    1667.98 cm**-1
     9:    3469.35 cm**-1
    10:    3589.01 cm**-1
    11:    3589.24 cm**-1

IR SPECTRUM
-----------

 Mode   freq       eps      Int      T**2         TX        TY        TZ
       cm**-1   L/(mol*cm) km/mol    a.u.
----------------------------------------------------------------------------
  6:   1034.82   0.030389  153.57  0.009164  ( 0.000000 -0.000017  0.095729)
  7:   1667.88   0.003372   17.04  0.000631  (-0.025118 -0.000280  0.000001)
  8:   1667.98   0.003388   17.12  0.000634  ( 0.000279 -0.025177  0.000008)
  9:   3469.35   0.000293    1.48  0.000026  ( 0.000000  0.000005 -0.005133)
 10:   3589.01   0.000327    1.65  0.000028  ( 0.005333  0.000005  0.000000)
 11:   3589.24   0.000328    1.66  0.000029  (-0.000005  0.005341  0.000004)

--------------------------
THERMOCHEMISTRY AT 298.15K
--------------------------

Temperature         ...   298.15 K
Pressure            ...     1.00 atm
Total Mass          ...    17.03 AMU
Quasi RRHO          ...     True
Cut-Off Frequency   ...     1.00 cm^-1

Throughout the following assumptions are being made:
  (1) The electronic state is orbitally nondegenerate
  (2) There are no thermally accessible electronically excited states
  (3) Hindered rotations indicated by low frequency modes are not
      treated as such but are treated as vibrations and this may
      cause some error
  (4) All equations used are the standard statistical mechanics
      equations for an ideal gas
  (5) All vibrations are strictly harmonic

freq.    1034.82  E(vib)   ...       0.02
freq.    1667.88  E(vib)   ...       0.00
freq.    1667.98  E(vib)   ...       0.00
freq.    3469.35  E(vib)   ...       0.00
freq.    3589.01  E(vib)   ...       0.00
freq.    3589.24  E(vib)   ...       0.00

------------
INNER ENERGY
------------

The inner energy is: U= E(el) + E(ZPE) + E(vib) + E(rot) + E(trans)
    E(el)   - is the total energy from the electronic structure calculation
              = E(kin-el) + E(nuc-el) + E(el-el) + E(nuc-nuc)
    E(ZPE)  - the the zero temperature vibrational energy from the frequency calculation
    E(vib)  - the the finite temperature correction to E(ZPE) due to population
              of excited vibrational states
    E(rot)  - is the rotational thermal energy
    E(trans)- is the translational thermal energy

Summary of contributions to the inner energy U:
Electronic energy                ...    -56.55228963 Eh
Zero point energy                ...      0.03421416 Eh      21.47 kcal/mol
Thermal vibrational correction   ...      0.00003705 Eh       0.02 kcal/mol
Thermal rotational correction    ...      0.00141627 Eh       0.89 kcal/mol
Thermal translational correction ...      0.00141627 Eh       0.89 kcal/mol
-----------------------------------------------------------------------
Total thermal energy                    -56.51520588 Eh

Summary of corrections to the electronic energy:
(perhaps to be used in another calculation)
Total thermal correction                  0.00286959 Eh       1.80 kcal/mol
Non-thermal (ZPE) correction              0.03421416 Eh      21.47 kcal/mol
-----------------------------------------------------------------------
Total correction                          0.03708375 Eh      23.27 kcal/mol

--------
ENTHALPY
--------

The enthalpy is H = U + kB*T
                kB is Boltzmann's constant
Total thermal energy              ...    -56.51520588 Eh
Thermal Enthalpy correction       ...      0.00094421 Eh       0.59 kcal/mol
-----------------------------------------------------------------------
Total Enthalpy                    ...    -56.51426167 Eh

Note: Rotational entropy computed according to Herzberg
Infrared and Raman Spectra, Chapter V,1, Van Nostrand Reinhold, 1945
Point Group:  C3v, Symmetry Number:   3
Rotational constants in cm-1:     9.975661     9.975471     6.299533

Vibrational entropy computed according to the QRRHO of S. Grimme
Chem.Eur.J. 2012 18 9955 using a reference frequency of 100.0 cm-1

-------
ENTROPY
-------

The entropy contributions are T*S = T*(S(el)+S(vib)+S(rot)+S(trans))
     S(el)   - electronic entropy
     S(vib)  - vibrational entropy
     S(rot)  - rotational entropy
     S(trans)- translational entropy
The entropies will be listed as multiplied by the temperature to get
units of energy

Electronic entropy                ...      0.00000000 Eh      0.00 kcal/mol
Vibrational entropy               ...      0.00004410 Eh      0.03 kcal/mol
Rotational entropy                ...      0.00543290 Eh      3.41 kcal/mol
Translational entropy             ...      0.01636425 Eh     10.27 kcal/mol
-----------------------------------------------------------------------
Final entropy term                ...      0.02184125 Eh     13.71 kcal/mol

In case the symmetry of your molecule has not been determined correctly
or in case you have a reason to use a different symmetry number we print
out the resulting rotational entropy values for sn=1,12:

 non-linear molecules -----------------------------------
|  sn= 1 | S(rot)=       0.00647019 Eh      4.06 kcal/mol|
|  sn= 2 | S(rot)=       0.00581574 Eh      3.65 kcal/mol|
|  sn= 3 | S(rot)=       0.00543290 Eh      3.41 kcal/mol|
|  sn= 4 | S(rot)=       0.00516128 Eh      3.24 kcal/mol|
|  sn= 5 | S(rot)=       0.00495059 Eh      3.11 kcal/mol|
|  sn= 6 | S(rot)=       0.00477845 Eh      3.00 kcal/mol|
|  sn= 7 | S(rot)=       0.00463290 Eh      2.91 kcal/mol|
|  sn= 8 | S(rot)=       0.00450682 Eh      2.83 kcal/mol|
|  sn= 9 | S(rot)=       0.00439561 Eh      2.76 kcal/mol|
|  sn=10 | S(rot)=       0.00429614 Eh      2.70 kcal/mol|
|  sn=11 | S(rot)=       0.00420615 Eh      2.64 kcal/mol|
|  sn=12 | S(rot)=       0.00412399 Eh      2.59 kcal/mol|
 linear molecules ---------------------------------------
|  Dinfh | S(rot)=       0.00358806 Eh      2.25 kcal/mol|
|  Cinfv | S(rot)=       0.00424252 Eh      2.66 kcal/mol|
 --------------------------------------------------------

-------------------
GIBBS FREE ENERGY
-------------------

The Gibbs free energy is G = H - T*S

Total enthalpy                    ...    -56.51426167 Eh
Total entropy correction          ...     -0.02184125 Eh    -13.71 kcal/mol
-----------------------------------------------------------------------
Final Gibbs free energy         ...    -56.53610292 Eh

For completeness - the Gibbs free energy minus the electronic energy
G-E(el)                           ...      0.01618671 Eh     10.16 kcal/mol

                             ****ORCA TERMINATED NORMALLY****
TOTAL RUN TIME: 0 days 0 hours 2 minutes 0 seconds 971 msec
