                         Program Version 6.0.1  -  RELEASE   -
|  1> ! LDA def2-TZVPP Opt TightOpt VeryTightSCF
|  2>
|  3> %scf
|  4>    MaxIter 400          # MÃ¡ximo de iteraciones permitidas para el SCF
|  5> end
|  6>
|  7> %geom
|  8>    TolRMSD 1.0e-5
|  9>    TolMAXD 1.0e-4
| 10>    TolRMSG 1.0e-5
| 11>    TolMAXG 1.0e-4
| 12> end
| 13>
| 14> %pal
| 15>    nprocs 1
| 16> end
| 17>
| 18>
| 19> %MaxCore 4000            # Memoria mÃ¡xima por nÃºcleo (en MB)
| 20>
| 21> * xyz 0 1
| 22> Cl     0.000000    0.000000    0.074144
| 23> H      0.000000    0.000000   -1.208014
| 24> **                         ****END OF INPUT****
 Total Charge           Charge          ....    0
 Multiplicity           Mult            ....    1
 Number of Electrons    NEL             ....   18
FINAL SINGLE POINT ENERGY      -459.319935596114
FINAL SINGLE POINT ENERGY      -459.319970996355
FINAL SINGLE POINT ENERGY      -459.319972522009
FINAL SINGLE POINT ENERGY      -459.319972523191
                    ***********************HURRAY********************

CARTESIAN COORDINATES (ANGSTROEM)
---------------------------------
  Cl     0.000000    0.000000    0.078195
  H      0.000000    0.000000   -1.212065

 Multiplicity           Mult            ....    1
 Number of Electrons    NEL             ....   18
 Basis Dimension        Dim             ....   56

ORBITAL ENERGIES
----------------

  NO   OCC          E(Eh)            E(eV)
   0   2.0000    -100.303824     -2729.4058
   1   2.0000      -9.141401      -248.7502
   2   2.0000      -7.000203      -190.4852
   3   2.0000      -6.990161      -190.2120
   4   2.0000      -6.990161      -190.2120
   5   2.0000      -0.769981       -20.9523
   6   2.0000      -0.429229       -11.6799
   7   2.0000      -0.294924        -8.0253
   8   2.0000      -0.294924        -8.0253
   9   0.0000      -0.030719        -0.8359
  10   0.0000       0.150953         4.1076
  11   0.0000       0.296219         8.0605
  12   0.0000       0.296219         8.0605
  13   0.0000       0.301638         8.2080

MULLIKEN ATOMIC CHARGES
-----------------------
   0 Cl:   -0.196212
   1 H :    0.196212
Sum of atomic charges:    0.0000000

LOEWDIN ATOMIC CHARGES
----------------------
   0 Cl:    0.197015
   1 H :   -0.197015

  Mayer bond orders larger than 0.100000
B(  0-Cl,  1-H ) :   1.0248

FINAL SINGLE POINT ENERGY      -459.319972523179

DIPOLE MOMENT
-------------

Method             : SCF
Type of density    : Electron Density
Multiplicity       :   1
Irrep              :   0
Energy             :  -459.3199725231791035 Eh
Relativity type    :
Basis              : AO
                                X                 Y                 Z
Electronic contribution:      0.000000000       0.000000000       0.736673359
Nuclear contribution   :      0.000000000       0.000000000      -1.224904099
                        -----------------------------------------
Total Dipole Moment    :      0.000000000       0.000000000      -0.488230740
                        -----------------------------------------
Magnitude (a.u.)       :      0.488230740
Magnitude (Debye)      :      1.240983919

Rotational constants in cm-1:             0.000000            10.331350            10.331350
Rotational constants in MHz :             0.000000        309726.067483        309726.067483

                             ****ORCA TERMINATED NORMALLY****
TOTAL RUN TIME: 0 days 0 hours 0 minutes 4 seconds 641 msec
