                         Program Version 6.0.1  -  RELEASE   -
|  1> ! B3LYP def2-TZVPP Opt TightOpt VeryTightSCF
|  2>
|  3> ! Freq
|  4> ! NumFreq
|  5>
|  6> %scf
|  7>    MaxIter 400          # MÃ¡ximo de iteraciones permitidas para el SCF
|  8> end
|  9>
| 10> %geom
| 11>    TolRMSD 1.0e-5
| 12>    TolMAXD 1.0e-4
| 13>    TolRMSG 1.0e-5
| 14>    TolMAXG 1.0e-4
| 15> end
| 16>
| 17> %pal
| 18>    nprocs 1
| 19> end
| 20>
| 21>
| 22> %MaxCore 4000            # Memoria mÃ¡xima por nÃºcleo (en MB)
| 23>
| 24> * xyz 0 1
| 25> C       0.66559385    0.00000000    0.00000000
| 26> C      -0.66559385    0.00000000    0.00000000
| 27> H       1.23167063   -0.92149339    0.00000000
| 28> H       1.23167063    0.92149339    0.00000000
| 29> H      -1.23167063   -0.92149339    0.00000000
| 30> H      -1.23167063    0.92149339    0.00000000
| 31> **                         ****END OF INPUT****
 Total Charge           Charge          ....    0
 Multiplicity           Mult            ....    1
 Number of Electrons    NEL             ....   16
FINAL SINGLE POINT ENERGY       -78.567286210250
FINAL SINGLE POINT ENERGY       -78.567327724351
FINAL SINGLE POINT ENERGY       -78.567332005654
FINAL SINGLE POINT ENERGY       -78.567332995452
FINAL SINGLE POINT ENERGY       -78.567333328010
FINAL SINGLE POINT ENERGY       -78.567333334538
                    ***********************HURRAY********************

CARTESIAN COORDINATES (ANGSTROEM)
---------------------------------
  C      0.662540    0.000000    0.000000
  C     -0.662540    0.000000    0.000000
  H      1.232142   -0.921019   -0.000000
  H      1.232142    0.921019   -0.000000
  H     -1.232142   -0.921019   -0.000000
  H     -1.232142    0.921019   -0.000000

 Multiplicity           Mult            ....    1
 Number of Electrons    NEL             ....   16
 Basis Dimension        Dim             ....  118

ORBITAL ENERGIES
----------------

  NO   OCC          E(Eh)            E(eV)
   0   2.0000     -10.170145      -276.7437
   1   2.0000     -10.169212      -276.7183
   2   2.0000      -0.762812       -20.7572
   3   2.0000      -0.580879       -15.8065
   4   2.0000      -0.471449       -12.8288
   5   2.0000      -0.423886       -11.5345
   6   2.0000      -0.356605        -9.7037
   7   2.0000      -0.278262        -7.5719
   8   0.0000      -0.002196        -0.0597
   9   0.0000       0.066924         1.8211
  10   0.0000       0.090951         2.4749
  11   0.0000       0.092835         2.5262
  12   0.0000       0.152584         4.1520

MULLIKEN ATOMIC CHARGES
-----------------------
   0 C :   -0.214068
   1 C :   -0.214076
   2 H :    0.107034
   3 H :    0.107035
   4 H :    0.107038
   5 H :    0.107037
Sum of atomic charges:    0.0000000

LOEWDIN ATOMIC CHARGES
----------------------
   0 C :    0.003399
   1 C :    0.003400
   2 H :   -0.001700
   3 H :   -0.001700
   4 H :   -0.001700
   5 H :   -0.001700

  Mayer bond orders larger than 0.100000
B(  0-C ,  1-C ) :   1.9083 B(  0-C ,  2-H ) :   0.9785 B(  0-C ,  3-H ) :   0.9785
B(  1-C ,  4-H ) :   0.9785 B(  1-C ,  5-H ) :   0.9785

FINAL SINGLE POINT ENERGY       -78.567333335526

DIPOLE MOMENT
-------------

Method             : SCF
Type of density    : Electron Density
Multiplicity       :   1
Irrep              :   0
Energy             :   -78.5673333355255750 Eh
Relativity type    :
Basis              : AO
                                X                 Y                 Z
Electronic contribution:     -0.000000763      -0.000000013       0.000000106
Nuclear contribution   :     -0.000000001      -0.000000010      -0.000000076
                        -----------------------------------------
Total Dipole Moment    :     -0.000000764      -0.000000022       0.000000029
                        -----------------------------------------
Magnitude (a.u.)       :      0.000000765
Magnitude (Debye)      :      0.000001945

VIBRATIONAL FREQUENCIES
-----------------------

Scaling factor for frequencies =  1.000000000  (already applied!)

     0:       0.00 cm**-1
     1:       0.00 cm**-1
     2:       0.00 cm**-1
     3:       0.00 cm**-1
     4:       0.00 cm**-1
     5:       0.00 cm**-1
     6:     833.76 cm**-1
     7:     978.19 cm**-1
     8:     984.80 cm**-1
     9:    1063.98 cm**-1
    10:    1245.61 cm**-1
    11:    1380.82 cm**-1
    12:    1481.05 cm**-1
    13:    1688.73 cm**-1
    14:    3128.22 cm**-1
    15:    3139.88 cm**-1
    16:    3195.79 cm**-1
    17:    3223.43 cm**-1

IR SPECTRUM
-----------

 Mode   freq       eps      Int      T**2         TX        TY        TZ
       cm**-1   L/(mol*cm) km/mol    a.u.
----------------------------------------------------------------------------
  6:    833.76   0.000067    0.34  0.000025  ( 0.000004 -0.005017 -0.000001)
  7:    978.19   0.019871  100.42  0.006339  ( 0.000001 -0.000001 -0.079619)
  8:    984.80   0.000005    0.02  0.000002  ( 0.000001 -0.000001  0.001239)
  9:   1063.98   0.000000    0.00  0.000000  (-0.000000  0.000000 -0.000002)
 10:   1245.61   0.000007    0.04  0.000002  (-0.000002  0.001362 -0.000001)
 11:   1380.82   0.000001    0.00  0.000000  ( 0.000445  0.000000  0.000000)
 12:   1481.05   0.002025   10.23  0.000427  (-0.020657 -0.000000  0.000000)
 13:   1688.73   0.000000    0.00  0.000000  (-0.000087  0.000000 -0.000001)
 14:   3128.22   0.003255   16.45  0.000325  ( 0.018021  0.000000 -0.000000)
 15:   3139.88   0.000008    0.04  0.000001  ( 0.000879 -0.000000 -0.000000)
 16:   3195.79   0.000009    0.05  0.000001  ( 0.000000  0.000962  0.000000)
 17:   3223.43   0.004775   24.13  0.000462  (-0.000000 -0.021501 -0.000000)

--------------------------
THERMOCHEMISTRY AT 298.15K
--------------------------

Temperature         ...   298.15 K
Pressure            ...     1.00 atm
Total Mass          ...    28.05 AMU
Quasi RRHO          ...     True
Cut-Off Frequency   ...     1.00 cm^-1

Throughout the following assumptions are being made:
  (1) The electronic state is orbitally nondegenerate
  (2) There are no thermally accessible electronically excited states
  (3) Hindered rotations indicated by low frequency modes are not
      treated as such but are treated as vibrations and this may
      cause some error
  (4) All equations used are the standard statistical mechanics
      equations for an ideal gas
  (5) All vibrations are strictly harmonic

freq.     833.76  E(vib)   ...       0.04
freq.     978.19  E(vib)   ...       0.03
freq.     984.80  E(vib)   ...       0.02
freq.    1063.98  E(vib)   ...       0.02
freq.    1245.61  E(vib)   ...       0.01
freq.    1380.82  E(vib)   ...       0.01
freq.    1481.05  E(vib)   ...       0.00
freq.    1688.73  E(vib)   ...       0.00
freq.    3128.22  E(vib)   ...       0.00
freq.    3139.88  E(vib)   ...       0.00
freq.    3195.79  E(vib)   ...       0.00
freq.    3223.43  E(vib)   ...       0.00

------------
INNER ENERGY
------------

The inner energy is: U= E(el) + E(ZPE) + E(vib) + E(rot) + E(trans)
    E(el)   - is the total energy from the electronic structure calculation
              = E(kin-el) + E(nuc-el) + E(el-el) + E(nuc-nuc)
    E(ZPE)  - the the zero temperature vibrational energy from the frequency calculation
    E(vib)  - the the finite temperature correction to E(ZPE) due to population
              of excited vibrational states
    E(rot)  - is the rotational thermal energy
    E(trans)- is the translational thermal energy

Summary of contributions to the inner energy U:
Electronic energy                ...    -78.56733334 Eh
Zero point energy                ...      0.05090396 Eh      31.94 kcal/mol
Thermal vibrational correction   ...      0.00020664 Eh       0.13 kcal/mol
Thermal rotational correction    ...      0.00141627 Eh       0.89 kcal/mol
Thermal translational correction ...      0.00141627 Eh       0.89 kcal/mol
-----------------------------------------------------------------------
Total thermal energy                    -78.51339019 Eh

Summary of corrections to the electronic energy:
(perhaps to be used in another calculation)
Total thermal correction                  0.00303919 Eh       1.91 kcal/mol
Non-thermal (ZPE) correction              0.05090396 Eh      31.94 kcal/mol
-----------------------------------------------------------------------
Total correction                          0.05394315 Eh      33.85 kcal/mol

--------
ENTHALPY
--------

The enthalpy is H = U + kB*T
                kB is Boltzmann's constant
Total thermal energy              ...    -78.51339019 Eh
Thermal Enthalpy correction       ...      0.00094421 Eh       0.59 kcal/mol
-----------------------------------------------------------------------
Total Enthalpy                    ...    -78.51244598 Eh

Note: Rotational entropy computed according to Herzberg
Infrared and Raman Spectra, Chapter V,1, Van Nostrand Reinhold, 1945
Point Group:  D2h, Symmetry Number:   4
Rotational constants in cm-1:     4.928774     1.011502     0.839265

Vibrational entropy computed according to the QRRHO of S. Grimme
Chem.Eur.J. 2012 18 9955 using a reference frequency of 100.0 cm-1

-------
ENTROPY
-------

The entropy contributions are T*S = T*(S(el)+S(vib)+S(rot)+S(trans))
     S(el)   - electronic entropy
     S(vib)  - vibrational entropy
     S(rot)  - rotational entropy
     S(trans)- translational entropy
The entropies will be listed as multiplied by the temperature to get
units of energy

Electronic entropy                ...      0.00000000 Eh      0.00 kcal/mol
Vibrational entropy               ...      0.00025057 Eh      0.16 kcal/mol
Rotational entropy                ...      0.00752620 Eh      4.72 kcal/mol
Translational entropy             ...      0.01707111 Eh     10.71 kcal/mol
-----------------------------------------------------------------------
Final entropy term                ...      0.02484788 Eh     15.59 kcal/mol

In case the symmetry of your molecule has not been determined correctly
or in case you have a reason to use a different symmetry number we print
out the resulting rotational entropy values for sn=1,12:

 non-linear molecules -----------------------------------
|  sn= 1 | S(rot)=       0.00883511 Eh      5.54 kcal/mol|
|  sn= 2 | S(rot)=       0.00818065 Eh      5.13 kcal/mol|
|  sn= 3 | S(rot)=       0.00779782 Eh      4.89 kcal/mol|
|  sn= 4 | S(rot)=       0.00752620 Eh      4.72 kcal/mol|
|  sn= 5 | S(rot)=       0.00731551 Eh      4.59 kcal/mol|
|  sn= 6 | S(rot)=       0.00714336 Eh      4.48 kcal/mol|
|  sn= 7 | S(rot)=       0.00699782 Eh      4.39 kcal/mol|
|  sn= 8 | S(rot)=       0.00687174 Eh      4.31 kcal/mol|
|  sn= 9 | S(rot)=       0.00676053 Eh      4.24 kcal/mol|
|  sn=10 | S(rot)=       0.00666105 Eh      4.18 kcal/mol|
|  sn=11 | S(rot)=       0.00657106 Eh      4.12 kcal/mol|
|  sn=12 | S(rot)=       0.00648891 Eh      4.07 kcal/mol|
 linear molecules ---------------------------------------
|  Dinfh | S(rot)=       0.00549125 Eh      3.45 kcal/mol|
|  Cinfv | S(rot)=       0.00614571 Eh      3.86 kcal/mol|
 --------------------------------------------------------

-------------------
GIBBS FREE ENERGY
-------------------

The Gibbs free energy is G = H - T*S

Total enthalpy                    ...    -78.51244598 Eh
Total entropy correction          ...     -0.02484788 Eh    -15.59 kcal/mol
-----------------------------------------------------------------------
Final Gibbs free energy         ...    -78.53729385 Eh

For completeness - the Gibbs free energy minus the electronic energy
G-E(el)                           ...      0.03003948 Eh     18.85 kcal/mol

                             ****ORCA TERMINATED NORMALLY****
TOTAL RUN TIME: 0 days 0 hours 7 minutes 38 seconds 506 msec
