                         Program Version 6.0.1  -  RELEASE   -
|  1> ! PBE0 def2-TZVPP Opt TightOpt VeryTightSCF
|  2>
|  3> ! Freq
|  4> ! NumFreq
|  5>
|  6> %scf
|  7>    MaxIter 400          # MÃ¡ximo de iteraciones permitidas para el SCF
|  8> end
|  9>
| 10> %geom
| 11>    TolRMSD 1.0e-5
| 12>    TolMAXD 1.0e-4
| 13>    TolRMSG 1.0e-5
| 14>    TolMAXG 1.0e-4
| 15> end
| 16>
| 17> %pal
| 18>    nprocs 1
| 19> end
| 20>
| 21>
| 22> %MaxCore 4000            # Memoria mÃ¡xima por nÃºcleo (en MB)
| 23>
| 24> * xyz 0 1
| 25> C       0.66559385    0.00000000    0.00000000
| 26> C      -0.66559385    0.00000000    0.00000000
| 27> H       1.23167063   -0.92149339    0.00000000
| 28> H       1.23167063    0.92149339    0.00000000
| 29> H      -1.23167063   -0.92149339    0.00000000
| 30> H      -1.23167063    0.92149339    0.00000000
| 31> **                         ****END OF INPUT****
 Total Charge           Charge          ....    0
 Multiplicity           Mult            ....    1
 Number of Electrons    NEL             ....   16
FINAL SINGLE POINT ENERGY       -78.513599508612
FINAL SINGLE POINT ENERGY       -78.513683136867
FINAL SINGLE POINT ENERGY       -78.513686874148
FINAL SINGLE POINT ENERGY       -78.513687414728
FINAL SINGLE POINT ENERGY       -78.513687699070
FINAL SINGLE POINT ENERGY       -78.513687700273
                    ***********************HURRAY********************

CARTESIAN COORDINATES (ANGSTROEM)
---------------------------------
  C      0.661522    0.000000   -0.000000
  C     -0.661522    0.000000   -0.000000
  H      1.230441   -0.922658    0.000000
  H      1.230441    0.922658   -0.000000
  H     -1.230441   -0.922658   -0.000000
  H     -1.230441    0.922658    0.000000

 Multiplicity           Mult            ....    1
 Number of Electrons    NEL             ....   16
 Basis Dimension        Dim             ....  118

ORBITAL ENERGIES
----------------

  NO   OCC          E(Eh)            E(eV)
   0   2.0000     -10.222197      -278.1601
   1   2.0000     -10.221189      -278.1327
   2   2.0000      -0.786924       -21.4133
   3   2.0000      -0.597929       -16.2705
   4   2.0000      -0.485815       -13.2197
   5   2.0000      -0.435524       -11.8512
   6   2.0000      -0.366403        -9.9703
   7   2.0000      -0.290646        -7.9089
   8   0.0000       0.004814         0.1310
   9   0.0000       0.077528         2.1096
  10   0.0000       0.101431         2.7601
  11   0.0000       0.104471         2.8428
  12   0.0000       0.164537         4.4773

MULLIKEN ATOMIC CHARGES
-----------------------
   0 C :   -0.198865
   1 C :   -0.198848
   2 H :    0.099431
   3 H :    0.099433
   4 H :    0.099424
   5 H :    0.099425
Sum of atomic charges:    0.0000000

LOEWDIN ATOMIC CHARGES
----------------------
   0 C :    0.001232
   1 C :    0.001232
   2 H :   -0.000616
   3 H :   -0.000616
   4 H :   -0.000616
   5 H :   -0.000616

  Mayer bond orders larger than 0.100000
B(  0-C ,  1-C ) :   1.9537 B(  0-C ,  2-H ) :   0.9804 B(  0-C ,  3-H ) :   0.9804
B(  1-C ,  4-H ) :   0.9804 B(  1-C ,  5-H ) :   0.9804

FINAL SINGLE POINT ENERGY       -78.513687700020

DIPOLE MOMENT
-------------

Method             : SCF
Type of density    : Electron Density
Multiplicity       :   1
Irrep              :   0
Energy             :   -78.5136877000201423 Eh
Relativity type    :
Basis              : AO
                                X                 Y                 Z
Electronic contribution:      0.000000250       0.000000015       0.000000017
Nuclear contribution   :     -0.000000045      -0.000000056       0.000000024
                        -----------------------------------------
Total Dipole Moment    :      0.000000205      -0.000000042       0.000000041
                        -----------------------------------------
Magnitude (a.u.)       :      0.000000213
Magnitude (Debye)      :      0.000000541

VIBRATIONAL FREQUENCIES
-----------------------

Scaling factor for frequencies =  1.000000000  (already applied!)

     0:       0.00 cm**-1
     1:       0.00 cm**-1
     2:       0.00 cm**-1
     3:       0.00 cm**-1
     4:       0.00 cm**-1
     5:       0.00 cm**-1
     6:     828.09 cm**-1
     7:     979.30 cm**-1
     8:     986.71 cm**-1
     9:    1068.64 cm**-1
    10:    1239.56 cm**-1
    11:    1380.58 cm**-1
    12:    1467.73 cm**-1
    13:    1703.52 cm**-1
    14:    3145.60 cm**-1
    15:    3160.97 cm**-1
    16:    3222.61 cm**-1
    17:    3249.24 cm**-1

IR SPECTRUM
-----------

 Mode   freq       eps      Int      T**2         TX        TY        TZ
       cm**-1   L/(mol*cm) km/mol    a.u.
----------------------------------------------------------------------------
  6:    828.09   0.000063    0.32  0.000024  (-0.000006  0.004876  0.000003)
  7:    979.30   0.020065  101.40  0.006394  ( 0.000004 -0.000002 -0.079962)
  8:    986.71   0.000000    0.00  0.000000  (-0.000000  0.000001 -0.000347)
  9:   1068.64   0.000000    0.00  0.000000  ( 0.000002 -0.000000  0.000001)
 10:   1239.56   0.000000    0.00  0.000000  ( 0.000001  0.000010  0.000001)
 11:   1380.58   0.000000    0.00  0.000000  ( 0.000002  0.000000  0.000002)
 12:   1467.73   0.002234   11.29  0.000475  (-0.021792  0.000000  0.000002)
 13:   1703.52   0.000000    0.00  0.000000  (-0.000001 -0.000001 -0.000001)
 14:   3145.60   0.002839   14.35  0.000282  ( 0.016782 -0.000000 -0.000000)
 15:   3160.97   0.000000    0.00  0.000000  ( 0.000008  0.000000  0.000000)
 16:   3222.61   0.000000    0.00  0.000000  ( 0.000000  0.000003 -0.000000)
 17:   3249.24   0.003480   17.59  0.000334  ( 0.000000  0.018283 -0.000000)

--------------------------
THERMOCHEMISTRY AT 298.15K
--------------------------

Temperature         ...   298.15 K
Pressure            ...     1.00 atm
Total Mass          ...    28.05 AMU
Quasi RRHO          ...     True
Cut-Off Frequency   ...     1.00 cm^-1

Throughout the following assumptions are being made:
  (1) The electronic state is orbitally nondegenerate
  (2) There are no thermally accessible electronically excited states
  (3) Hindered rotations indicated by low frequency modes are not
      treated as such but are treated as vibrations and this may
      cause some error
  (4) All equations used are the standard statistical mechanics
      equations for an ideal gas
  (5) All vibrations are strictly harmonic

freq.     828.09  E(vib)   ...       0.04
freq.     979.30  E(vib)   ...       0.03
freq.     986.71  E(vib)   ...       0.02
freq.    1068.64  E(vib)   ...       0.02
freq.    1239.56  E(vib)   ...       0.01
freq.    1380.58  E(vib)   ...       0.01
freq.    1467.73  E(vib)   ...       0.00
freq.    1703.52  E(vib)   ...       0.00
freq.    3145.60  E(vib)   ...       0.00
freq.    3160.97  E(vib)   ...       0.00
freq.    3222.61  E(vib)   ...       0.00
freq.    3249.24  E(vib)   ...       0.00

------------
INNER ENERGY
------------

The inner energy is: U= E(el) + E(ZPE) + E(vib) + E(rot) + E(trans)
    E(el)   - is the total energy from the electronic structure calculation
              = E(kin-el) + E(nuc-el) + E(el-el) + E(nuc-nuc)
    E(ZPE)  - the the zero temperature vibrational energy from the frequency calculation
    E(vib)  - the the finite temperature correction to E(ZPE) due to population
              of excited vibrational states
    E(rot)  - is the rotational thermal energy
    E(trans)- is the translational thermal energy

Summary of contributions to the inner energy U:
Electronic energy                ...    -78.51368770 Eh
Zero point energy                ...      0.05110509 Eh      32.07 kcal/mol
Thermal vibrational correction   ...      0.00020766 Eh       0.13 kcal/mol
Thermal rotational correction    ...      0.00141627 Eh       0.89 kcal/mol
Thermal translational correction ...      0.00141627 Eh       0.89 kcal/mol
-----------------------------------------------------------------------
Total thermal energy                    -78.45954241 Eh

Summary of corrections to the electronic energy:
(perhaps to be used in another calculation)
Total thermal correction                  0.00304020 Eh       1.91 kcal/mol
Non-thermal (ZPE) correction              0.05110509 Eh      32.07 kcal/mol
-----------------------------------------------------------------------
Total correction                          0.05414529 Eh      33.98 kcal/mol

--------
ENTHALPY
--------

The enthalpy is H = U + kB*T
                kB is Boltzmann's constant
Total thermal energy              ...    -78.45954241 Eh
Thermal Enthalpy correction       ...      0.00094421 Eh       0.59 kcal/mol
-----------------------------------------------------------------------
Total Enthalpy                    ...    -78.45859820 Eh

Note: Rotational entropy computed according to Herzberg
Infrared and Raman Spectra, Chapter V,1, Van Nostrand Reinhold, 1945
Point Group:  D2h, Symmetry Number:   4
Rotational constants in cm-1:     4.911280     1.014501     0.840817

Vibrational entropy computed according to the QRRHO of S. Grimme
Chem.Eur.J. 2012 18 9955 using a reference frequency of 100.0 cm-1

-------
ENTROPY
-------

The entropy contributions are T*S = T*(S(el)+S(vib)+S(rot)+S(trans))
     S(el)   - electronic entropy
     S(vib)  - vibrational entropy
     S(rot)  - rotational entropy
     S(trans)- translational entropy
The entropies will be listed as multiplied by the temperature to get
units of energy

Electronic entropy                ...      0.00000000 Eh      0.00 kcal/mol
Vibrational entropy               ...      0.00025192 Eh      0.16 kcal/mol
Rotational entropy                ...      0.00752560 Eh      4.72 kcal/mol
Translational entropy             ...      0.01707111 Eh     10.71 kcal/mol
-----------------------------------------------------------------------
Final entropy term                ...      0.02484863 Eh     15.59 kcal/mol

In case the symmetry of your molecule has not been determined correctly
or in case you have a reason to use a different symmetry number we print
out the resulting rotational entropy values for sn=1,12:

 non-linear molecules -----------------------------------
|  sn= 1 | S(rot)=       0.00883452 Eh      5.54 kcal/mol|
|  sn= 2 | S(rot)=       0.00818006 Eh      5.13 kcal/mol|
|  sn= 3 | S(rot)=       0.00779723 Eh      4.89 kcal/mol|
|  sn= 4 | S(rot)=       0.00752560 Eh      4.72 kcal/mol|
|  sn= 5 | S(rot)=       0.00731492 Eh      4.59 kcal/mol|
|  sn= 6 | S(rot)=       0.00714277 Eh      4.48 kcal/mol|
|  sn= 7 | S(rot)=       0.00699723 Eh      4.39 kcal/mol|
|  sn= 8 | S(rot)=       0.00687115 Eh      4.31 kcal/mol|
|  sn= 9 | S(rot)=       0.00675994 Eh      4.24 kcal/mol|
|  sn=10 | S(rot)=       0.00666046 Eh      4.18 kcal/mol|
|  sn=11 | S(rot)=       0.00657047 Eh      4.12 kcal/mol|
|  sn=12 | S(rot)=       0.00648832 Eh      4.07 kcal/mol|
 linear molecules ---------------------------------------
|  Dinfh | S(rot)=       0.00548951 Eh      3.44 kcal/mol|
|  Cinfv | S(rot)=       0.00614397 Eh      3.86 kcal/mol|
 --------------------------------------------------------

-------------------
GIBBS FREE ENERGY
-------------------

The Gibbs free energy is G = H - T*S

Total enthalpy                    ...    -78.45859820 Eh
Total entropy correction          ...     -0.02484863 Eh    -15.59 kcal/mol
-----------------------------------------------------------------------
Final Gibbs free energy         ...    -78.48344683 Eh

For completeness - the Gibbs free energy minus the electronic energy
G-E(el)                           ...      0.03024087 Eh     18.98 kcal/mol

                             ****ORCA TERMINATED NORMALLY****
TOTAL RUN TIME: 0 days 0 hours 7 minutes 47 seconds 339 msec
