                         Program Version 6.0.1  -  RELEASE   -
|  1> ! LDA def2-TZVPP Opt TightOpt VeryTightSCF
|  2>
|  3> ! Freq
|  4> ! NumFreq
|  5>
|  6> %scf
|  7>    MaxIter 400          # MÃ¡ximo de iteraciones permitidas para el SCF
|  8> end
|  9>
| 10> %geom
| 11>    TolRMSD 1.0e-5
| 12>    TolMAXD 1.0e-4
| 13>    TolRMSG 1.0e-5
| 14>    TolMAXG 1.0e-4
| 15> end
| 16>
| 17> %pal
| 18>    nprocs 30
| 19> end
| 20>
| 21> %MaxCore 4000            # Memoria mÃ¡xima por nÃºcleo (en MB)
| 22>
| 23> * xyz 0 1
| 24> C      -1.19880240    0.69212860    0.00000000
| 25> C      -1.19880240   -0.69212860    0.00000000
| 26> C       0.00000000   -1.38425390    0.00000000
| 27> C       1.19880240   -0.69212860    0.00000000
| 28> C       1.19880240    0.69212860    0.00000000
| 29> C       0.00000000    1.38425390    0.00000000
| 30> H      -2.13315490   -1.23157780    0.00000000
| 31> H       0.00000000   -2.46315180    0.00000000
| 32> H       2.13315490   -1.23157780    0.00000000
| 33> H       2.13315490    1.23157780    0.00000000
| 34> H       0.00000000    2.46315180    0.00000000
| 35> H      -2.13315490    1.23157780    0.00000000
| 36> **                         ****END OF INPUT****
 Total Charge           Charge          ....    0
 Multiplicity           Mult            ....    1
 Number of Electrons    NEL             ....   42
FINAL SINGLE POINT ENERGY      -230.182949057628
FINAL SINGLE POINT ENERGY      -230.183777632985
FINAL SINGLE POINT ENERGY      -230.183780144680
FINAL SINGLE POINT ENERGY      -230.183780149641
                    ***********************HURRAY********************

CARTESIAN COORDINATES (ANGSTROEM)
---------------------------------
  C     -1.199968    0.692842   -0.000000
  C     -1.199968   -0.692842    0.000000
  C      0.000000   -1.385697    0.000000
  C      1.199968   -0.692842   -0.000000
  C      1.199968    0.692842   -0.000000
  C     -0.000000    1.385697   -0.000000
  H     -2.147105   -1.239674    0.000000
  H     -0.000000   -2.479347    0.000000
  H      2.147105   -1.239674    0.000000
  H      2.147105    1.239674    0.000000
  H      0.000000    2.479347    0.000000
  H     -2.147105    1.239674    0.000000

 Multiplicity           Mult            ....    1
 Number of Electrons    NEL             ....   42
 Basis Dimension        Dim             ....  270

ORBITAL ENERGIES
----------------

  NO   OCC          E(Eh)            E(eV)
   0   2.0000      -9.787843      -266.3408
   1   2.0000      -9.787714      -266.3372
   2   2.0000      -9.787712      -266.3372
   3   2.0000      -9.787274      -266.3253
   4   2.0000      -9.787271      -266.3252
   5   2.0000      -9.787096      -266.3204
   6   2.0000      -0.781611       -21.2687
   7   2.0000      -0.675623       -18.3846
   8   2.0000      -0.675599       -18.3840
   9   2.0000      -0.543792       -14.7973
  10   2.0000      -0.543784       -14.7971
  11   2.0000      -0.478083       -13.0093
  12   2.0000      -0.408494       -11.1157
  13   2.0000      -0.404245       -11.0001
  14   2.0000      -0.377064       -10.2604
  15   2.0000      -0.377036       -10.2597
  16   2.0000      -0.343287        -9.3413
  17   2.0000      -0.302514        -8.2318
  18   2.0000      -0.302504        -8.2316
  19   2.0000      -0.240549        -6.5457
  20   2.0000      -0.240531        -6.5452
  21   0.0000      -0.049562        -1.3486
  22   0.0000      -0.049552        -1.3484
  23   0.0000       0.020032         0.5451
  24   0.0000       0.057185         1.5561
  25   0.0000       0.057192         1.5563

MULLIKEN ATOMIC CHARGES
-----------------------
   0 C :   -0.170232
   1 C :   -0.170232
   2 C :   -0.170207
   3 C :   -0.170232
   4 C :   -0.170232
   5 C :   -0.170207
   6 H :    0.170203
   7 H :    0.170265
   8 H :    0.170203
   9 H :    0.170203
  10 H :    0.170265
  11 H :    0.170203
Sum of atomic charges:    0.0000000

LOEWDIN ATOMIC CHARGES
----------------------
   0 C :   -0.032251
   1 C :   -0.032251
   2 C :   -0.032271
   3 C :   -0.032251
   4 C :   -0.032251
   5 C :   -0.032271
   6 H :    0.032256
   7 H :    0.032260
   8 H :    0.032256
   9 H :    0.032256
  10 H :    0.032260
  11 H :    0.032256

  Mayer bond orders larger than 0.100000
B(  0-C ,  1-C ) :   1.4211 B(  0-C ,  5-C ) :   1.4212 B(  0-C , 11-H ) :   0.9376
B(  1-C ,  2-C ) :   1.4212 B(  1-C ,  6-H ) :   0.9376 B(  2-C ,  3-C ) :   1.4212
B(  2-C ,  7-H ) :   0.9375 B(  3-C ,  4-C ) :   1.4211 B(  3-C ,  8-H ) :   0.9376
B(  4-C ,  5-C ) :   1.4212 B(  4-C ,  9-H ) :   0.9376 B(  5-C , 10-H ) :   0.9375

FINAL SINGLE POINT ENERGY      -230.183780149726

DIPOLE MOMENT
-------------

Method             : SCF
Type of density    : Electron Density
Multiplicity       :   1
Irrep              :   0
Energy             :  -230.1837801497260614 Eh
Relativity type    :
Basis              : AO
                                X                 Y                 Z
Electronic contribution:     -0.000000008       0.000000006      -0.000000009
Nuclear contribution   :      0.000000008      -0.000000001       0.000000013
                        -----------------------------------------
Total Dipole Moment    :     -0.000000000       0.000000005       0.000000004
                        -----------------------------------------
Magnitude (a.u.)       :      0.000000006
Magnitude (Debye)      :      0.000000016

VIBRATIONAL FREQUENCIES
-----------------------

Scaling factor for frequencies =  1.000000000  (already applied!)

     0:       0.00 cm**-1
     1:       0.00 cm**-1
     2:       0.00 cm**-1
     3:       0.00 cm**-1
     4:       0.00 cm**-1
     5:       0.00 cm**-1
     6:     395.61 cm**-1
     7:     395.89 cm**-1
     8:     602.81 cm**-1
     9:     603.38 cm**-1
    10:     659.57 cm**-1
    11:     718.27 cm**-1
    12:     832.50 cm**-1
    13:     832.57 cm**-1
    14:     951.18 cm**-1
    15:     951.40 cm**-1
    16:     986.20 cm**-1
    17:     998.09 cm**-1
    18:    1020.60 cm**-1
    19:    1040.77 cm**-1
    20:    1041.87 cm**-1
    21:    1125.51 cm**-1
    22:    1151.97 cm**-1
    23:    1152.46 cm**-1
    24:    1317.35 cm**-1
    25:    1392.77 cm**-1
    26:    1469.77 cm**-1
    27:    1470.70 cm**-1
    28:    1620.75 cm**-1
    29:    1621.67 cm**-1
    30:    3084.92 cm**-1
    31:    3093.50 cm**-1
    32:    3094.42 cm**-1
    33:    3107.80 cm**-1
    34:    3108.56 cm**-1
    35:    3116.63 cm**-1

IR SPECTRUM
-----------

 Mode   freq       eps      Int      T**2         TX        TY        TZ
       cm**-1   L/(mol*cm) km/mol    a.u.
----------------------------------------------------------------------------
  6:    395.61   0.000000    0.00  0.000000  (-0.000000  0.000000 -0.000000)
  7:    395.89   0.000000    0.00  0.000000  (-0.000000 -0.000000 -0.000015)
  8:    602.81   0.000000    0.00  0.000000  (-0.000000 -0.000000 -0.000001)
  9:    603.38   0.000000    0.00  0.000000  ( 0.000000 -0.000000 -0.000000)
 10:    659.57   0.022756  115.00  0.010767  ( 0.000000  0.000000  0.103763)
 11:    718.27   0.000000    0.00  0.000000  (-0.000000 -0.000000 -0.000000)
 12:    832.50   0.000000    0.00  0.000000  (-0.000000 -0.000000  0.000000)
 13:    832.57   0.000000    0.00  0.000000  (-0.000000 -0.000000  0.000001)
 14:    951.18   0.000000    0.00  0.000000  (-0.000000 -0.000000  0.000000)
 15:    951.40   0.000000    0.00  0.000000  ( 0.000000  0.000000 -0.000015)
 16:    986.20   0.000000    0.00  0.000000  (-0.000000 -0.000000 -0.000000)
 17:    998.09   0.000001    0.01  0.000000  ( 0.000000  0.000628 -0.000000)
 18:   1020.60   0.000000    0.00  0.000000  ( 0.000000 -0.000000 -0.000000)
 19:   1040.77   0.001485    7.50  0.000445  ( 0.021099 -0.000009 -0.000000)
 20:   1041.87   0.001416    7.15  0.000424  (-0.000009 -0.020592  0.000000)
 21:   1125.51   0.000000    0.00  0.000000  ( 0.000070 -0.000000  0.000000)
 22:   1151.97   0.000000    0.00  0.000000  (-0.000000 -0.000000 -0.000000)
 23:   1152.46   0.000000    0.00  0.000000  (-0.000000 -0.000000  0.000000)
 24:   1317.35   0.000000    0.00  0.000000  (-0.000000  0.000000 -0.000000)
 25:   1392.77   0.000000    0.00  0.000000  ( 0.000214 -0.000000  0.000000)
 26:   1469.77   0.001894    9.57  0.000402  ( 0.000000 -0.020056 -0.000000)
 27:   1470.70   0.001865    9.42  0.000396  (-0.019891 -0.000000  0.000000)
 28:   1620.75   0.000000    0.00  0.000000  (-0.000000 -0.000000 -0.000000)
 29:   1621.67   0.000000    0.00  0.000000  ( 0.000000  0.000000 -0.000000)
 30:   3084.92   0.000003    0.01  0.000000  (-0.000000 -0.000522 -0.000000)
 31:   3093.50   0.000000    0.00  0.000000  (-0.000000 -0.000000 -0.000000)
 32:   3094.42   0.000000    0.00  0.000000  (-0.000001 -0.000000 -0.000000)
 33:   3107.80   0.003316   16.76  0.000333  (-0.000015  0.018248 -0.000000)
 34:   3108.56   0.003309   16.72  0.000332  (-0.018226 -0.000015  0.000000)
 35:   3116.63   0.000000    0.00  0.000000  ( 0.000000 -0.000000  0.000000)

--------------------------
THERMOCHEMISTRY AT 298.15K
--------------------------

Temperature         ...   298.15 K
Pressure            ...     1.00 atm
Total Mass          ...    78.11 AMU
Quasi RRHO          ...     True
Cut-Off Frequency   ...     1.00 cm^-1

Throughout the following assumptions are being made:
  (1) The electronic state is orbitally nondegenerate
  (2) There are no thermally accessible electronically excited states
  (3) Hindered rotations indicated by low frequency modes are not
      treated as such but are treated as vibrations and this may
      cause some error
  (4) All equations used are the standard statistical mechanics
      equations for an ideal gas
  (5) All vibrations are strictly harmonic

freq.     395.61  E(vib)   ...       0.20
freq.     395.89  E(vib)   ...       0.20
freq.     602.81  E(vib)   ...       0.10
freq.     603.38  E(vib)   ...       0.10
freq.     659.57  E(vib)   ...       0.08
freq.     718.27  E(vib)   ...       0.07
freq.     832.50  E(vib)   ...       0.04
freq.     832.57  E(vib)   ...       0.04
freq.     951.18  E(vib)   ...       0.03
freq.     951.40  E(vib)   ...       0.03
freq.     986.20  E(vib)   ...       0.02
freq.     998.09  E(vib)   ...       0.02
freq.    1020.60  E(vib)   ...       0.02
freq.    1040.77  E(vib)   ...       0.02
freq.    1041.87  E(vib)   ...       0.02
freq.    1125.51  E(vib)   ...       0.01
freq.    1151.97  E(vib)   ...       0.01
freq.    1152.46  E(vib)   ...       0.01
freq.    1317.35  E(vib)   ...       0.01
freq.    1392.77  E(vib)   ...       0.00
freq.    1469.77  E(vib)   ...       0.00
freq.    1470.70  E(vib)   ...       0.00
freq.    1620.75  E(vib)   ...       0.00
freq.    1621.67  E(vib)   ...       0.00
freq.    3084.92  E(vib)   ...       0.00
freq.    3093.50  E(vib)   ...       0.00
freq.    3094.42  E(vib)   ...       0.00
freq.    3107.80  E(vib)   ...       0.00
freq.    3108.56  E(vib)   ...       0.00
freq.    3116.63  E(vib)   ...       0.00

------------
INNER ENERGY
------------

The inner energy is: U= E(el) + E(ZPE) + E(vib) + E(rot) + E(trans)
    E(el)   - is the total energy from the electronic structure calculation
              = E(kin-el) + E(nuc-el) + E(el-el) + E(nuc-nuc)
    E(ZPE)  - the the zero temperature vibrational energy from the frequency calculation
    E(vib)  - the the finite temperature correction to E(ZPE) due to population
              of excited vibrational states
    E(rot)  - is the rotational thermal energy
    E(trans)- is the translational thermal energy

Summary of contributions to the inner energy U:
Electronic energy                ...   -230.18378015 Eh
Zero point energy                ...      0.09786893 Eh      61.41 kcal/mol
Thermal vibrational correction   ...      0.00167813 Eh       1.05 kcal/mol
Thermal rotational correction    ...      0.00141627 Eh       0.89 kcal/mol
Thermal translational correction ...      0.00141627 Eh       0.89 kcal/mol
-----------------------------------------------------------------------
Total thermal energy                   -230.08140055 Eh

Summary of corrections to the electronic energy:
(perhaps to be used in another calculation)
Total thermal correction                  0.00451068 Eh       2.83 kcal/mol
Non-thermal (ZPE) correction              0.09786893 Eh      61.41 kcal/mol
-----------------------------------------------------------------------
Total correction                          0.10237960 Eh      64.24 kcal/mol

--------
ENTHALPY
--------

The enthalpy is H = U + kB*T
                kB is Boltzmann's constant
Total thermal energy              ...   -230.08140055 Eh
Thermal Enthalpy correction       ...      0.00094421 Eh       0.59 kcal/mol
-----------------------------------------------------------------------
Total Enthalpy                    ...   -230.08045634 Eh

Note: Rotational entropy computed according to Herzberg
Infrared and Raman Spectra, Chapter V,1, Van Nostrand Reinhold, 1945
Point Group:  D6h, Symmetry Number:  12
Rotational constants in cm-1:     0.192072     0.192050     0.096030

Vibrational entropy computed according to the QRRHO of S. Grimme
Chem.Eur.J. 2012 18 9955 using a reference frequency of 100.0 cm-1

-------
ENTROPY
-------

The entropy contributions are T*S = T*(S(el)+S(vib)+S(rot)+S(trans))
     S(el)   - electronic entropy
     S(vib)  - vibrational entropy
     S(rot)  - rotational entropy
     S(trans)- translational entropy
The entropies will be listed as multiplied by the temperature to get
units of energy

Electronic entropy                ...      0.00000000 Eh      0.00 kcal/mol
Vibrational entropy               ...      0.00226474 Eh      1.42 kcal/mol
Rotational entropy                ...      0.00982861 Eh      6.17 kcal/mol
Translational entropy             ...      0.01852142 Eh     11.62 kcal/mol
-----------------------------------------------------------------------
Final entropy term                ...      0.03061477 Eh     19.21 kcal/mol

In case the symmetry of your molecule has not been determined correctly
or in case you have a reason to use a different symmetry number we print
out the resulting rotational entropy values for sn=1,12:

 non-linear molecules -----------------------------------
|  sn= 1 | S(rot)=       0.01217481 Eh      7.64 kcal/mol|
|  sn= 2 | S(rot)=       0.01152035 Eh      7.23 kcal/mol|
|  sn= 3 | S(rot)=       0.01113752 Eh      6.99 kcal/mol|
|  sn= 4 | S(rot)=       0.01086589 Eh      6.82 kcal/mol|
|  sn= 5 | S(rot)=       0.01065521 Eh      6.69 kcal/mol|
|  sn= 6 | S(rot)=       0.01048306 Eh      6.58 kcal/mol|
|  sn= 7 | S(rot)=       0.01033752 Eh      6.49 kcal/mol|
|  sn= 8 | S(rot)=       0.01021144 Eh      6.41 kcal/mol|
|  sn= 9 | S(rot)=       0.01010023 Eh      6.34 kcal/mol|
|  sn=10 | S(rot)=       0.01000075 Eh      6.28 kcal/mol|
|  sn=11 | S(rot)=       0.00991076 Eh      6.22 kcal/mol|
|  sn=12 | S(rot)=       0.00982861 Eh      6.17 kcal/mol|
 linear molecules ---------------------------------------
|  Dinfh | S(rot)=       0.00753811 Eh      4.73 kcal/mol|
|  Cinfv | S(rot)=       0.00819256 Eh      5.14 kcal/mol|
 --------------------------------------------------------

-------------------
GIBBS FREE ENERGY
-------------------

The Gibbs free energy is G = H - T*S

Total enthalpy                    ...   -230.08045634 Eh
Total entropy correction          ...     -0.03061477 Eh    -19.21 kcal/mol
-----------------------------------------------------------------------
Final Gibbs free energy         ...   -230.11107111 Eh

For completeness - the Gibbs free energy minus the electronic energy
G-E(el)                           ...      0.07270904 Eh     45.63 kcal/mol

                             ****ORCA TERMINATED NORMALLY****
TOTAL RUN TIME: 0 days 0 hours 1 minutes 44 seconds 823 msec
