                         Program Version 6.0.1  -  RELEASE   -
|  1> ! HFS def2-TZVPP Opt TightOpt VeryTightSCF
|  2>
|  3> %scf
|  4>    MaxIter 400          # MÃ¡ximo de iteraciones permitidas para el SCF
|  5> end
|  6>
|  7> %geom
|  8>    TolRMSD 1.0e-5
|  9>    TolMAXD 1.0e-4
| 10>    TolRMSG 1.0e-5
| 11>    TolMAXG 1.0e-4
| 12> end
| 13>
| 14> %pal
| 15>    nprocs 1
| 16> end
| 17>
| 18>
| 19> %MaxCore 4000            # Memoria mÃ¡xima por nÃºcleo (en MB)
| 20>
| 21> * xyz 0 1
| 22> Cl     0.000000    0.000000    0.074144
| 23> H      0.000000    0.000000   -1.208014
| 24> **                         ****END OF INPUT****
 Total Charge           Charge          ....    0
 Multiplicity           Mult            ....    1
 Number of Electrons    NEL             ....   18
FINAL SINGLE POINT ENERGY      -432.794576367803
FINAL SINGLE POINT ENERGY      -432.830579162211
FINAL SINGLE POINT ENERGY      -432.842582315484
FINAL SINGLE POINT ENERGY      -432.847281018308
FINAL SINGLE POINT ENERGY      -432.848314984276
FINAL SINGLE POINT ENERGY      -432.848428501675
FINAL SINGLE POINT ENERGY      -432.848431939611
FINAL SINGLE POINT ENERGY      -432.848431953191
FINAL SINGLE POINT ENERGY      -432.848431954209
FINAL SINGLE POINT ENERGY      -432.848431954386
                    ***********************HURRAY********************

CARTESIAN COORDINATES (ANGSTROEM)
---------------------------------
  Cl     0.000000    0.000000    0.309339
  H      0.000000    0.000000   -1.443209

 Multiplicity           Mult            ....    1
 Number of Electrons    NEL             ....   18
 Basis Dimension        Dim             ....   56

ORBITAL ENERGIES
----------------

  NO   OCC          E(Eh)            E(eV)
   0   2.0000     -95.405748     -2596.1224
   1   2.0000      -7.861220      -213.9147
   2   2.0000      -5.729996      -155.9211
   3   2.0000      -5.716797      -155.5620
   4   2.0000      -5.716797      -155.5620
   5   2.0000      -0.378149       -10.2900
   6   2.0000      -0.076036        -2.0690
   7   2.0000       0.021418         0.5828
   8   2.0000       0.021418         0.5828
   9   0.0000       0.109746         2.9864
  10   0.0000       0.382466        10.4074
  11   0.0000       0.509629        13.8677
  12   0.0000       0.533097        14.5063
  13   0.0000       0.533097        14.5063

MULLIKEN ATOMIC CHARGES
-----------------------
   0 Cl:   -0.094067
   1 H :    0.094067
Sum of atomic charges:   -0.0000000

LOEWDIN ATOMIC CHARGES
----------------------
   0 Cl:    0.025066
   1 H :   -0.025066

  Mayer bond orders larger than 0.100000
B(  0-Cl,  1-H ) :   1.0257

FINAL SINGLE POINT ENERGY      -432.848431954384

DIPOLE MOMENT
-------------

Method             : SCF
Type of density    : Electron Density
Multiplicity       :   1
Irrep              :   0
Energy             :  -432.8484319543836705 Eh
Relativity type    :
Basis              : AO
                                X                 Y                 Z
Electronic contribution:      0.000000000       0.000000000       1.371414191
Nuclear contribution   :      0.000000000       0.000000000      -1.663774415
                        -----------------------------------------
Total Dipole Moment    :      0.000000000       0.000000000      -0.292360224
                        -----------------------------------------
Magnitude (a.u.)       :      0.292360224
Magnitude (Debye)      :      0.743120632

Rotational constants in cm-1:             0.000000             5.599798             5.599798
Rotational constants in MHz :             0.000000        167877.715893        167877.715893

                             ****ORCA TERMINATED NORMALLY****
TOTAL RUN TIME: 0 days 0 hours 0 minutes 10 seconds 334 msec
