                         Program Version 6.0.1  -  RELEASE   -
|  1> ! B3LYP def2-TZVPP Opt TightOpt VeryTightSCF
|  2>
|  3> ! Freq
|  4> ! NumFreq
|  5>
|  6> %scf
|  7>    MaxIter 400          # MÃ¡ximo de iteraciones permitidas para el SCF
|  8> end
|  9>
| 10> %geom
| 11>    TolRMSD 1.0e-5
| 12>    TolMAXD 1.0e-4
| 13>    TolRMSG 1.0e-5
| 14>    TolMAXG 1.0e-4
| 15> end
| 16>
| 17> %pal
| 18>    nprocs 30
| 19> end
| 20>
| 21> %MaxCore 4000            # Memoria mÃ¡xima por nÃºcleo (en MB)
| 22>
| 23> * xyz 0 1
| 24> C      -1.19880240    0.69212860    0.00000000
| 25> C      -1.19880240   -0.69212860    0.00000000
| 26> C       0.00000000   -1.38425390    0.00000000
| 27> C       1.19880240   -0.69212860    0.00000000
| 28> C       1.19880240    0.69212860    0.00000000
| 29> C       0.00000000    1.38425390    0.00000000
| 30> H      -2.13315490   -1.23157780    0.00000000
| 31> H       0.00000000   -2.46315180    0.00000000
| 32> H       2.13315490   -1.23157780    0.00000000
| 33> H       2.13315490    1.23157780    0.00000000
| 34> H       0.00000000    2.46315180    0.00000000
| 35> H      -2.13315490    1.23157780    0.00000000
| 36> **                         ****END OF INPUT****
 Total Charge           Charge          ....    0
 Multiplicity           Mult            ....    1
 Number of Electrons    NEL             ....   42
FINAL SINGLE POINT ENERGY      -232.185685810333
FINAL SINGLE POINT ENERGY      -232.186011443738
FINAL SINGLE POINT ENERGY      -232.186020264895
FINAL SINGLE POINT ENERGY      -232.186020292706
                    ***********************HURRAY********************

CARTESIAN COORDINATES (ANGSTROEM)
---------------------------------
  C     -1.204956    0.695698   -0.000000
  C     -1.204956   -0.695698   -0.000000
  C     -0.000000   -1.391408    0.000000
  C      1.204956   -0.695698    0.000000
  C      1.204956    0.695698   -0.000000
  C     -0.000000    1.391408   -0.000000
  H     -2.142361   -1.236917   -0.000000
  H     -0.000000   -2.473825   -0.000000
  H      2.142361   -1.236917    0.000000
  H      2.142361    1.236917   -0.000000
  H      0.000000    2.473825   -0.000000
  H     -2.142361    1.236917    0.000000

 Multiplicity           Mult            ....    1
 Number of Electrons    NEL             ....   42
 Basis Dimension        Dim             ....  270

ORBITAL ENERGIES
----------------

  NO   OCC          E(Eh)            E(eV)
   0   2.0000     -10.173904      -276.8460
   1   2.0000     -10.173672      -276.8397
   2   2.0000     -10.173667      -276.8395
   3   2.0000     -10.173087      -276.8238
   4   2.0000     -10.173081      -276.8236
   5   2.0000     -10.172816      -276.8164
   6   2.0000      -0.855010       -23.2660
   7   2.0000      -0.746226       -20.3058
   8   2.0000      -0.746211       -20.3054
   9   2.0000      -0.603052       -16.4099
  10   2.0000      -0.603049       -16.4098
  11   2.0000      -0.525263       -14.2931
  12   2.0000      -0.461033       -12.5453
  13   2.0000      -0.448316       -12.1993
  14   2.0000      -0.422647       -11.5008
  15   2.0000      -0.422635       -11.5005
  16   2.0000      -0.370058       -10.0698
  17   2.0000      -0.345361        -9.3977
  18   2.0000      -0.345356        -9.3976
  19   2.0000      -0.256271        -6.9735
  20   2.0000      -0.256271        -6.9735
  21   0.0000      -0.011661        -0.3173
  22   0.0000      -0.011658        -0.3172
  23   0.0000       0.048039         1.3072
  24   0.0000       0.080875         2.2007
  25   0.0000       0.080878         2.2008

MULLIKEN ATOMIC CHARGES
-----------------------
   0 C :   -0.132283
   1 C :   -0.132267
   2 C :   -0.132729
   3 C :   -0.132267
   4 C :   -0.132286
   5 C :   -0.132703
   6 H :    0.132385
   7 H :    0.132498
   8 H :    0.132383
   9 H :    0.132385
  10 H :    0.132503
  11 H :    0.132381
Sum of atomic charges:    0.0000000

LOEWDIN ATOMIC CHARGES
----------------------
   0 C :   -0.015546
   1 C :   -0.015546
   2 C :   -0.015528
   3 C :   -0.015547
   4 C :   -0.015547
   5 C :   -0.015528
   6 H :    0.015539
   7 H :    0.015542
   8 H :    0.015539
   9 H :    0.015539
  10 H :    0.015542
  11 H :    0.015539

  Mayer bond orders larger than 0.100000
B(  0-C ,  1-C ) :   1.4323 B(  0-C ,  5-C ) :   1.4318 B(  0-C , 11-H ) :   0.9585
B(  1-C ,  2-C ) :   1.4317 B(  1-C ,  6-H ) :   0.9585 B(  2-C ,  3-C ) :   1.4317
B(  2-C ,  7-H ) :   0.9585 B(  3-C ,  4-C ) :   1.4323 B(  3-C ,  8-H ) :   0.9585
B(  4-C ,  5-C ) :   1.4318 B(  4-C ,  9-H ) :   0.9585 B(  5-C , 10-H ) :   0.9585

FINAL SINGLE POINT ENERGY      -232.186020292936

DIPOLE MOMENT
-------------

Method             : SCF
Type of density    : Electron Density
Multiplicity       :   1
Irrep              :   0
Energy             :  -232.1860202929356944 Eh
Relativity type    :
Basis              : AO
                                X                 Y                 Z
Electronic contribution:     -0.000002364      -0.000001672      -0.000000048
Nuclear contribution   :      0.000000115       0.000000066      -0.000000023
                        -----------------------------------------
Total Dipole Moment    :     -0.000002249      -0.000001607      -0.000000071
                        -----------------------------------------
Magnitude (a.u.)       :      0.000002765
Magnitude (Debye)      :      0.000007029

VIBRATIONAL FREQUENCIES
-----------------------

Scaling factor for frequencies =  1.000000000  (already applied!)

     0:       0.00 cm**-1
     1:       0.00 cm**-1
     2:       0.00 cm**-1
     3:       0.00 cm**-1
     4:       0.00 cm**-1
     5:       0.00 cm**-1
     6:     413.60 cm**-1
     7:     413.70 cm**-1
     8:     621.39 cm**-1
     9:     623.73 cm**-1
    10:     690.48 cm**-1
    11:     723.28 cm**-1
    12:     867.80 cm**-1
    13:     867.82 cm**-1
    14:     989.48 cm**-1
    15:     989.54 cm**-1
    16:    1013.05 cm**-1
    17:    1019.56 cm**-1
    18:    1030.22 cm**-1
    19:    1054.22 cm**-1
    20:    1063.84 cm**-1
    21:    1172.03 cm**-1
    22:    1196.28 cm**-1
    23:    1196.69 cm**-1
    24:    1335.30 cm**-1
    25:    1386.88 cm**-1
    26:    1514.14 cm**-1
    27:    1524.04 cm**-1
    28:    1634.08 cm**-1
    29:    1637.42 cm**-1
    30:    3155.61 cm**-1
    31:    3164.77 cm**-1
    32:    3166.31 cm**-1
    33:    3181.78 cm**-1
    34:    3187.33 cm**-1
    35:    3190.16 cm**-1

IR SPECTRUM
-----------

 Mode   freq       eps      Int      T**2         TX        TY        TZ
       cm**-1   L/(mol*cm) km/mol    a.u.
----------------------------------------------------------------------------
  6:    413.60   0.000000    0.00  0.000000  ( 0.000002 -0.000007 -0.000003)
  7:    413.70   0.000000    0.00  0.000000  ( 0.000004 -0.000007  0.000022)
  8:    621.39   0.000000    0.00  0.000000  (-0.000010 -0.000017 -0.000004)
  9:    623.73   0.000000    0.00  0.000000  ( 0.000003  0.000002 -0.000005)
 10:    690.48   0.022949  115.97  0.010372  ( 0.000004 -0.000007 -0.101841)
 11:    723.28   0.000000    0.00  0.000000  (-0.000001  0.000002 -0.000022)
 12:    867.80   0.000001    0.00  0.000000  ( 0.000002 -0.000003  0.000541)
 13:    867.82   0.000000    0.00  0.000000  (-0.000002  0.000002  0.000169)
 14:    989.48   0.000000    0.00  0.000000  (-0.000002 -0.000002 -0.000030)
 15:    989.54   0.000000    0.00  0.000000  (-0.000001  0.000005 -0.000031)
 16:   1013.05   0.000000    0.00  0.000000  ( 0.000006  0.000012 -0.000000)
 17:   1019.56   0.000000    0.00  0.000000  (-0.000000  0.000005 -0.000003)
 18:   1030.22   0.000003    0.02  0.000001  ( 0.000001  0.001026 -0.000002)
 19:   1054.22   0.001188    6.00  0.000352  (-0.000008 -0.018753  0.000003)
 20:   1063.84   0.000828    4.18  0.000243  (-0.015582  0.000013  0.000002)
 21:   1172.03   0.000025    0.13  0.000007  ( 0.002599 -0.000005 -0.000000)
 22:   1196.28   0.000000    0.00  0.000000  (-0.000007 -0.000013 -0.000003)
 23:   1196.69   0.000000    0.00  0.000000  ( 0.000015  0.000041  0.000002)
 24:   1335.30   0.000004    0.02  0.000001  (-0.000908  0.000002  0.000000)
 25:   1386.88   0.000000    0.00  0.000000  (-0.000017 -0.000021 -0.000000)
 26:   1514.14   0.001322    6.68  0.000272  ( 0.016506  0.000006 -0.000001)
 27:   1524.04   0.001723    8.71  0.000353  ( 0.000009 -0.018785  0.000002)
 28:   1634.08   0.000000    0.00  0.000000  ( 0.000009  0.000015 -0.000000)
 29:   1637.42   0.000000    0.00  0.000000  ( 0.000002  0.000004 -0.000000)
 30:   3155.61   0.000078    0.39  0.000008  ( 0.000000 -0.002779  0.000003)
 31:   3164.77   0.000000    0.00  0.000000  (-0.000032 -0.000023  0.000000)
 32:   3166.31   0.000000    0.00  0.000000  (-0.000010  0.000008 -0.000001)
 33:   3181.78   0.006960   35.17  0.000683  (-0.000012  0.026127 -0.000001)
 34:   3187.33   0.006439   32.54  0.000630  (-0.025109 -0.000013  0.000000)
 35:   3190.16   0.000001    0.00  0.000000  ( 0.000234  0.000038  0.000001)

--------------------------
THERMOCHEMISTRY AT 298.15K
--------------------------

Temperature         ...   298.15 K
Pressure            ...     1.00 atm
Total Mass          ...    78.11 AMU
Quasi RRHO          ...     True
Cut-Off Frequency   ...     1.00 cm^-1

Throughout the following assumptions are being made:
  (1) The electronic state is orbitally nondegenerate
  (2) There are no thermally accessible electronically excited states
  (3) Hindered rotations indicated by low frequency modes are not
      treated as such but are treated as vibrations and this may
      cause some error
  (4) All equations used are the standard statistical mechanics
      equations for an ideal gas
  (5) All vibrations are strictly harmonic

freq.     413.60  E(vib)   ...       0.19
freq.     413.70  E(vib)   ...       0.19
freq.     621.39  E(vib)   ...       0.09
freq.     623.73  E(vib)   ...       0.09
freq.     690.48  E(vib)   ...       0.07
freq.     723.28  E(vib)   ...       0.07
freq.     867.80  E(vib)   ...       0.04
freq.     867.82  E(vib)   ...       0.04
freq.     989.48  E(vib)   ...       0.02
freq.     989.54  E(vib)   ...       0.02
freq.    1013.05  E(vib)   ...       0.02
freq.    1019.56  E(vib)   ...       0.02
freq.    1030.22  E(vib)   ...       0.02
freq.    1054.22  E(vib)   ...       0.02
freq.    1063.84  E(vib)   ...       0.02
freq.    1172.03  E(vib)   ...       0.01
freq.    1196.28  E(vib)   ...       0.01
freq.    1196.69  E(vib)   ...       0.01
freq.    1335.30  E(vib)   ...       0.01
freq.    1386.88  E(vib)   ...       0.00
freq.    1514.14  E(vib)   ...       0.00
freq.    1524.04  E(vib)   ...       0.00
freq.    1634.08  E(vib)   ...       0.00
freq.    1637.42  E(vib)   ...       0.00
freq.    3155.61  E(vib)   ...       0.00
freq.    3164.77  E(vib)   ...       0.00
freq.    3166.31  E(vib)   ...       0.00
freq.    3181.78  E(vib)   ...       0.00
freq.    3187.33  E(vib)   ...       0.00
freq.    3190.16  E(vib)   ...       0.00

------------
INNER ENERGY
------------

The inner energy is: U= E(el) + E(ZPE) + E(vib) + E(rot) + E(trans)
    E(el)   - is the total energy from the electronic structure calculation
              = E(kin-el) + E(nuc-el) + E(el-el) + E(nuc-nuc)
    E(ZPE)  - the the zero temperature vibrational energy from the frequency calculation
    E(vib)  - the the finite temperature correction to E(ZPE) due to population
              of excited vibrational states
    E(rot)  - is the rotational thermal energy
    E(trans)- is the translational thermal energy

Summary of contributions to the inner energy U:
Electronic energy                ...   -232.18602029 Eh
Zero point energy                ...      0.10029524 Eh      62.94 kcal/mol
Thermal vibrational correction   ...      0.00155296 Eh       0.97 kcal/mol
Thermal rotational correction    ...      0.00141627 Eh       0.89 kcal/mol
Thermal translational correction ...      0.00141627 Eh       0.89 kcal/mol
-----------------------------------------------------------------------
Total thermal energy                   -232.08133955 Eh

Summary of corrections to the electronic energy:
(perhaps to be used in another calculation)
Total thermal correction                  0.00438550 Eh       2.75 kcal/mol
Non-thermal (ZPE) correction              0.10029524 Eh      62.94 kcal/mol
-----------------------------------------------------------------------
Total correction                          0.10468074 Eh      65.69 kcal/mol

--------
ENTHALPY
--------

The enthalpy is H = U + kB*T
                kB is Boltzmann's constant
Total thermal energy              ...   -232.08133955 Eh
Thermal Enthalpy correction       ...      0.00094421 Eh       0.59 kcal/mol
-----------------------------------------------------------------------
Total Enthalpy                    ...   -232.08039534 Eh

Note: Rotational entropy computed according to Herzberg
Infrared and Raman Spectra, Chapter V,1, Van Nostrand Reinhold, 1945
Point Group:  D6h, Symmetry Number:  12
Rotational constants in cm-1:     0.190996     0.190986     0.095495

Vibrational entropy computed according to the QRRHO of S. Grimme
Chem.Eur.J. 2012 18 9955 using a reference frequency of 100.0 cm-1

-------
ENTROPY
-------

The entropy contributions are T*S = T*(S(el)+S(vib)+S(rot)+S(trans))
     S(el)   - electronic entropy
     S(vib)  - vibrational entropy
     S(rot)  - rotational entropy
     S(trans)- translational entropy
The entropies will be listed as multiplied by the temperature to get
units of energy

Electronic entropy                ...      0.00000000 Eh      0.00 kcal/mol
Vibrational entropy               ...      0.00208164 Eh      1.31 kcal/mol
Rotational entropy                ...      0.00983652 Eh      6.17 kcal/mol
Translational entropy             ...      0.01852142 Eh     11.62 kcal/mol
-----------------------------------------------------------------------
Final entropy term                ...      0.03043958 Eh     19.10 kcal/mol

In case the symmetry of your molecule has not been determined correctly
or in case you have a reason to use a different symmetry number we print
out the resulting rotational entropy values for sn=1,12:

 non-linear molecules -----------------------------------
|  sn= 1 | S(rot)=       0.01218272 Eh      7.64 kcal/mol|
|  sn= 2 | S(rot)=       0.01152826 Eh      7.23 kcal/mol|
|  sn= 3 | S(rot)=       0.01114543 Eh      6.99 kcal/mol|
|  sn= 4 | S(rot)=       0.01087380 Eh      6.82 kcal/mol|
|  sn= 5 | S(rot)=       0.01066312 Eh      6.69 kcal/mol|
|  sn= 6 | S(rot)=       0.01049097 Eh      6.58 kcal/mol|
|  sn= 7 | S(rot)=       0.01034543 Eh      6.49 kcal/mol|
|  sn= 8 | S(rot)=       0.01021935 Eh      6.41 kcal/mol|
|  sn= 9 | S(rot)=       0.01010814 Eh      6.34 kcal/mol|
|  sn=10 | S(rot)=       0.01000866 Eh      6.28 kcal/mol|
|  sn=11 | S(rot)=       0.00991867 Eh      6.22 kcal/mol|
|  sn=12 | S(rot)=       0.00983652 Eh      6.17 kcal/mol|
 linear molecules ---------------------------------------
|  Dinfh | S(rot)=       0.00754338 Eh      4.73 kcal/mol|
|  Cinfv | S(rot)=       0.00819784 Eh      5.14 kcal/mol|
 --------------------------------------------------------

-------------------
GIBBS FREE ENERGY
-------------------

The Gibbs free energy is G = H - T*S

Total enthalpy                    ...   -232.08039534 Eh
Total entropy correction          ...     -0.03043958 Eh    -19.10 kcal/mol
-----------------------------------------------------------------------
Final Gibbs free energy         ...   -232.11083492 Eh

For completeness - the Gibbs free energy minus the electronic energy
G-E(el)                           ...      0.07518537 Eh     47.18 kcal/mol

                             ****ORCA TERMINATED NORMALLY****
TOTAL RUN TIME: 0 days 0 hours 12 minutes 26 seconds 727 msec
