                         Program Version 6.0.1  -  RELEASE   -
|  1> ! PBE0 def2-TZVPP Opt TightOpt VeryTightSCF
|  2>
|  3> %scf
|  4>    MaxIter 400          # MÃ¡ximo de iteraciones permitidas para el SCF
|  5> end
|  6>
|  7> %geom
|  8>    TolRMSD 1.0e-5
|  9>    TolMAXD 1.0e-4
| 10>    TolRMSG 1.0e-5
| 11>    TolMAXG 1.0e-4
| 12> end
| 13>
| 14> %pal
| 15>    nprocs 1
| 16> end
| 17>
| 18>
| 19> %MaxCore 4000            # Memoria mÃ¡xima por nÃºcleo (en MB)
| 20>
| 21> * xyz 0 1
| 22> Cl     0.000000    0.000000    0.074144
| 23> H      0.000000    0.000000   -1.208014
| 24> **                         ****END OF INPUT****
 Total Charge           Charge          ....    0
 Multiplicity           Mult            ....    1
 Number of Electrons    NEL             ....   18
FINAL SINGLE POINT ENERGY      -460.665584947451
FINAL SINGLE POINT ENERGY      -460.665596175197
FINAL SINGLE POINT ENERGY      -460.665596521736
FINAL SINGLE POINT ENERGY      -460.665596521774
                    ***********************HURRAY********************

CARTESIAN COORDINATES (ANGSTROEM)
---------------------------------
  Cl     0.000000    0.000000    0.071931
  H      0.000000    0.000000   -1.205801

 Multiplicity           Mult            ....    1
 Number of Electrons    NEL             ....   18
 Basis Dimension        Dim             ....   56

ORBITAL ENERGIES
----------------

  NO   OCC          E(Eh)            E(eV)
   0   2.0000    -101.710373     -2767.6800
   1   2.0000      -9.536963      -259.5140
   2   2.0000      -7.270779      -197.8480
   3   2.0000      -7.262824      -197.6315
   4   2.0000      -7.262824      -197.6315
   5   2.0000      -0.866931       -23.5904
   6   2.0000      -0.486320       -13.2334
   7   2.0000      -0.346032        -9.4160
   8   2.0000      -0.346032        -9.4160
   9   0.0000       0.012730         0.3464
  10   0.0000       0.189106         5.1458
  11   0.0000       0.350113         9.5271
  12   0.0000       0.353729         9.6255
  13   0.0000       0.353729         9.6255

MULLIKEN ATOMIC CHARGES
-----------------------
   0 Cl:   -0.177592
   1 H :    0.177592
Sum of atomic charges:    0.0000000

LOEWDIN ATOMIC CHARGES
----------------------
   0 Cl:    0.216692
   1 H :   -0.216692

  Mayer bond orders larger than 0.100000
B(  0-Cl,  1-H ) :   1.0362

FINAL SINGLE POINT ENERGY      -460.665596521857

DIPOLE MOMENT
-------------

Method             : SCF
Type of density    : Electron Density
Multiplicity       :   1
Irrep              :   0
Energy             :  -460.6655965218569122 Eh
Relativity type    :
Basis              : AO
                                X                 Y                 Z
Electronic contribution:     -0.000000001       0.000000009       0.737835268
Nuclear contribution   :      0.000000000       0.000000000      -1.213010753
                        -----------------------------------------
Total Dipole Moment    :     -0.000000001       0.000000009      -0.475175485
                        -----------------------------------------
Magnitude (a.u.)       :      0.475175485
Magnitude (Debye)      :      1.207800097

Rotational constants in cm-1:             0.000000            10.534937            10.534937
Rotational constants in MHz :             0.000000        315829.456511        315829.456511

                             ****ORCA TERMINATED NORMALLY****
TOTAL RUN TIME: 0 days 0 hours 0 minutes 9 seconds 870 msec
