                         Program Version 6.0.1  -  RELEASE   -
|  1> ! HFS def2-TZVPP Opt TightOpt VeryTightSCF
|  2>
|  3> %scf
|  4>    MaxIter 400          # MÃ¡ximo de iteraciones permitidas para el SCF
|  5> end
|  6>
|  7> %geom
|  8>    TolRMSD 1.0e-5
|  9>    TolMAXD 1.0e-4
| 10>    TolRMSG 1.0e-5
| 11>    TolMAXG 1.0e-4
| 12> end
| 13>
| 14> %pal
| 15>    nprocs 30
| 16> end
| 17>
| 18> %MaxCore 4000            # Memoria mÃ¡xima por nÃºcleo (en MB)
| 19>
| 20> * xyz 0 1
| 21> C      -1.19880240    0.69212860    0.00000000
| 22> C      -1.19880240   -0.69212860    0.00000000
| 23> C       0.00000000   -1.38425390    0.00000000
| 24> C       1.19880240   -0.69212860    0.00000000
| 25> C       1.19880240    0.69212860    0.00000000
| 26> C       0.00000000    1.38425390    0.00000000
| 27> H      -2.13315490   -1.23157780    0.00000000
| 28> H       0.00000000   -2.46315180    0.00000000
| 29> H       2.13315490   -1.23157780    0.00000000
| 30> H       2.13315490    1.23157780    0.00000000
| 31> H       0.00000000    2.46315180    0.00000000
| 32> H      -2.13315490    1.23157780    0.00000000
| 33> **                         ****END OF INPUT****
 Total Charge           Charge          ....    0
 Multiplicity           Mult            ....    1
 Number of Electrons    NEL             ....   42
FINAL SINGLE POINT ENERGY      -198.586208513426
FINAL SINGLE POINT ENERGY      -198.833899763938
FINAL SINGLE POINT ENERGY      -199.027343413286
FINAL SINGLE POINT ENERGY      -199.238436655203
FINAL SINGLE POINT ENERGY      -199.412112151001
FINAL SINGLE POINT ENERGY      -199.494140937587
FINAL SINGLE POINT ENERGY      -199.527726109066
FINAL SINGLE POINT ENERGY      -199.537194622952
FINAL SINGLE POINT ENERGY      -199.538519438179
FINAL SINGLE POINT ENERGY      -199.538591088964
FINAL SINGLE POINT ENERGY      -199.538605123939
FINAL SINGLE POINT ENERGY      -199.538621443151
FINAL SINGLE POINT ENERGY      -199.538624602240
FINAL SINGLE POINT ENERGY      -199.538624919205
FINAL SINGLE POINT ENERGY      -199.538624927335
                    ***********************HURRAY********************

CARTESIAN COORDINATES (ANGSTROEM)
---------------------------------
  C     -1.631530    0.941964   -0.000000
  C     -1.631530   -0.941964    0.000000
  C      0.000000   -1.883928   -0.000000
  C      1.631530   -0.941964    0.000000
  C      1.631530    0.941964   -0.000000
  C      0.000000    1.883928    0.000000
  H     -2.957632   -1.707590   -0.000000
  H      0.000000   -3.415179    0.000000
  H      2.957632   -1.707590   -0.000000
  H      2.957632    1.707590    0.000000
  H      0.000000    3.415179   -0.000000
  H     -2.957632    1.707590    0.000000

 Multiplicity           Mult            ....    1
 Number of Electrons    NEL             ....   42
 Basis Dimension        Dim             ....  270

ORBITAL ENERGIES
----------------

  NO   OCC          E(Eh)            E(eV)
   0   2.0000      -8.402559      -228.6453
   1   2.0000      -8.402285      -228.6378
   2   2.0000      -8.402285      -228.6378
   3   2.0000      -8.402079      -228.6322
   4   2.0000      -8.402079      -228.6322
   5   2.0000      -8.402037      -228.6311
   6   2.0000      -0.334100        -9.0913
   7   2.0000      -0.281294        -7.6544
   8   2.0000      -0.281294        -7.6544
   9   2.0000      -0.188982        -5.1425
  10   2.0000      -0.188982        -5.1425
  11   2.0000      -0.109945        -2.9917
  12   2.0000      -0.096758        -2.6329
  13   2.0000      -0.050607        -1.3771
  14   2.0000      -0.050441        -1.3726
  15   2.0000      -0.050441        -1.3726
  16   2.0000      -0.018129        -0.4933
  17   2.0000      -0.009643        -0.2624
  18   2.0000      -0.009643        -0.2624
  19   2.0000       0.033697         0.9169
  20   2.0000       0.033697         0.9169
  21   0.0000       0.128991         3.5100
  22   0.0000       0.128991         3.5100
  23   0.0000       0.138376         3.7654
  24   0.0000       0.144375         3.9286
  25   0.0000       0.159828         4.3491

MULLIKEN ATOMIC CHARGES
-----------------------
   0 C :    0.042310
   1 C :    0.042310
   2 C :    0.042310
   3 C :    0.042310
   4 C :    0.042310
   5 C :    0.042310
   6 H :   -0.042310
   7 H :   -0.042310
   8 H :   -0.042310
   9 H :   -0.042310
  10 H :   -0.042310
  11 H :   -0.042310
Sum of atomic charges:   -0.0000000

LOEWDIN ATOMIC CHARGES
----------------------
   0 C :   -0.043696
   1 C :   -0.043696
   2 C :   -0.043696
   3 C :   -0.043696
   4 C :   -0.043696
   5 C :   -0.043696
   6 H :    0.043696
   7 H :    0.043696
   8 H :    0.043696
   9 H :    0.043696
  10 H :    0.043696
  11 H :    0.043696

  Mayer bond orders larger than 0.100000
B(  0-C ,  1-C ) :   1.2892 B(  0-C ,  5-C ) :   1.2892 B(  0-C , 11-H ) :   0.8329
B(  1-C ,  2-C ) :   1.2892 B(  1-C ,  6-H ) :   0.8329 B(  2-C ,  3-C ) :   1.2892
B(  2-C ,  7-H ) :   0.8329 B(  3-C ,  4-C ) :   1.2892 B(  3-C ,  8-H ) :   0.8329
B(  4-C ,  5-C ) :   1.2892 B(  4-C ,  9-H ) :   0.8329 B(  5-C , 10-H ) :   0.8329

FINAL SINGLE POINT ENERGY      -199.538624927196

DIPOLE MOMENT
-------------

Method             : SCF
Type of density    : Electron Density
Multiplicity       :   1
Irrep              :   0
Energy             :  -199.5386249271959400 Eh
Relativity type    :
Basis              : AO
                                X                 Y                 Z
Electronic contribution:      0.000000011       0.000000019      -0.000000000
Nuclear contribution   :     -0.000000001       0.000000002      -0.000000000
                        -----------------------------------------
Total Dipole Moment    :      0.000000010       0.000000021      -0.000000000
                        -----------------------------------------
Magnitude (a.u.)       :      0.000000023
Magnitude (Debye)      :      0.000000060

Rotational constants in cm-1:             0.103321             0.103321             0.051660
Rotational constants in MHz :          3097.483206          3097.483184          1548.741598

                             ****ORCA TERMINATED NORMALLY****
TOTAL RUN TIME: 0 days 0 hours 1 minutes 52 seconds 216 msec
