                         Program Version 6.0.1  -  RELEASE   -
|  1> ! PBE0 def2-TZVPP Opt TightOpt VeryTightSCF
|  2>
|  3> ! Freq
|  4> ! NumFreq
|  5>
|  6> %scf
|  7>    MaxIter 400          # MÃ¡ximo de iteraciones permitidas para el SCF
|  8> end
|  9>
| 10> %geom
| 11>    TolRMSD 1.0e-5
| 12>    TolMAXD 1.0e-4
| 13>    TolRMSG 1.0e-5
| 14>    TolMAXG 1.0e-4
| 15> end
| 16>
| 17> %tddft
| 18>   nroots 10
| 19> end
| 20>
| 21> %pal
| 22>    nprocs 1
| 23> end
| 24>
| 25>
| 26> %MaxCore 4000            # Memoria mÃ¡xima por nÃºcleo (en MB)
| 27>
| 28> * xyz 0 1
| 29> N       0.00000000    0.00000000    0.11361500
| 30> H       0.00000000    0.93799100   -0.26510100
| 31> H      -0.81232400   -0.46899600   -0.26510100
| 32> H       0.81232400   -0.46899600   -0.26510100
| 33> **                         ****END OF INPUT****
 Total Charge           Charge          ....    0
 Multiplicity           Mult            ....    1
 Number of Electrons    NEL             ....   10
FINAL SINGLE POINT ENERGY       -56.259752883877
FINAL SINGLE POINT ENERGY       -56.273209703927
FINAL SINGLE POINT ENERGY       -56.279179070197
FINAL SINGLE POINT ENERGY       -56.281145696745
FINAL SINGLE POINT ENERGY       -56.281759010288
FINAL SINGLE POINT ENERGY       -56.281974877261
FINAL SINGLE POINT ENERGY       -56.281998833307
FINAL SINGLE POINT ENERGY       -56.281999465992
FINAL SINGLE POINT ENERGY       -56.281991738120
FINAL SINGLE POINT ENERGY       -56.281996964786
FINAL SINGLE POINT ENERGY       -56.281992135981
FINAL SINGLE POINT ENERGY       -56.281995568193
FINAL SINGLE POINT ENERGY       -56.281996377412
FINAL SINGLE POINT ENERGY       -56.281997186398
                    ***********************HURRAY********************

CARTESIAN COORDINATES (ANGSTROEM)
---------------------------------
  N     -0.000000   -0.000541   -0.170409
  H      0.000000    1.066022   -0.172434
  H     -0.918247   -0.532741   -0.169423
  H      0.918247   -0.532741   -0.169423

 Multiplicity           Mult            ....    1
 Number of Electrons    NEL             ....   10
 Basis Dimension        Dim             ....   73

ORBITAL ENERGIES
----------------

  NO   OCC          E(Eh)            E(eV)
   0   2.0000     -14.356464      -390.6592
   1   2.0000      -0.830482       -22.5986
   2   2.0000      -0.469866       -12.7857
   3   2.0000      -0.469442       -12.7742
   4   2.0000      -0.242605        -6.6016
   5   0.0000       0.032215         0.8766
   6   0.0000       0.115250         3.1361
   7   0.0000       0.115966         3.1556
   8   0.0000       0.310216         8.4414
   9   0.0000       0.310686         8.4542

----------------------------------------------------------------------------------------------------
                     ABSORPTION SPECTRUM VIA TRANSITION ELECTRIC DIPOLE MOMENTS
----------------------------------------------------------------------------------------------------
     Transition      Energy     Energy  Wavelength fosc(D2)      D2        DX        DY        DZ
                      (eV)      (cm-1)    (nm)                 (au**2)    (au)      (au)      (au)
----------------------------------------------------------------------------------------------------
  0-1A  ->  1-1A    5.858331   47250.6   211.6   0.022880923   0.15942  -0.00000  -0.00076  -0.39927
  0-1A  ->  2-1A    7.776815   62724.3   159.4   0.000007110   0.00004   0.00000   0.00003   0.00611
  0-1A  ->  3-1A    7.796069   62879.5   159.0   0.000000000   0.00000   0.00002   0.00000  -0.00000
  0-1A  ->  4-1A   12.156836   98051.5   102.0   0.234665732   0.78790   0.88764  -0.00011   0.00000
  0-1A  ->  5-1A   12.158661   98066.2   102.0   0.241811821   0.81177   0.00011   0.90098  -0.00169
  0-1A  ->  6-1A   12.751828  102850.4    97.2   0.000000000   0.00000  -0.00002  -0.00000   0.00000
  0-1A  ->  7-1A   12.759826  102914.9    97.2   0.000019873   0.00006   0.00000   0.00003   0.00797
  0-1A  ->  8-1A   14.047911  113304.1    88.3   0.000148234   0.00043  -0.02075   0.00000  -0.00000
  0-1A  ->  9-1A   14.054062  113353.7    88.2   0.000478194   0.00139   0.00000   0.03727  -0.00016
  0-1A  -> 10-1A   14.298071  115321.7    86.7   0.214562479   0.61252   0.00005   0.78263  -0.00147

MULLIKEN ATOMIC CHARGES
-----------------------
   0 N :    0.517950
   1 H :   -0.177348
   2 H :   -0.170301
   3 H :   -0.170301
Sum of atomic charges:    0.0000000

LOEWDIN ATOMIC CHARGES
----------------------
   0 N :    0.671258
   1 H :   -0.225438
   2 H :   -0.222910
   3 H :   -0.222910

  Mayer bond orders larger than 0.100000
B(  0-N ,  1-H ) :   0.3971 B(  0-N ,  2-H ) :   0.4165 B(  0-N ,  3-H ) :   0.4165
B(  1-H ,  2-H ) :   0.2307 B(  1-H ,  3-H ) :   0.2307 B(  2-H ,  3-H ) :   0.2258

FINAL SINGLE POINT ENERGY       -56.281997298568

DIPOLE MOMENT
-------------

Method             : TDA/CIS
Type of density    : Electron Density
Level              : Relaxed density
State              :   1
Multiplicity       :   1
Irrep              :   0
Energy             :     0.0000000000000000 Eh
Relativity type    :
Basis              : AO
                                X                 Y                 Z
Electronic contribution:      0.000000067      -0.021433400       0.000087086
Nuclear contribution   :      0.000000010       0.001667746      -0.000039547
                        -----------------------------------------
Total Dipole Moment    :      0.000000077      -0.019765654       0.000047539
                        -----------------------------------------
Magnitude (a.u.)       :      0.019765711
Magnitude (Debye)      :      0.050240445

VIBRATIONAL FREQUENCIES
-----------------------

Scaling factor for frequencies =  1.000000000  (already applied!)

     0:       0.00 cm**-1
     1:       0.00 cm**-1
     2:       0.00 cm**-1
     3:       0.00 cm**-1
     4:       0.00 cm**-1
     5:       0.00 cm**-1
     6:     531.68 cm**-1
     7:    1067.51 cm**-1
     8:    1096.29 cm**-1
     9:    2387.44 cm**-1
    10:    2492.42 cm**-1
    11:    2700.45 cm**-1

IR SPECTRUM
-----------

 Mode   freq       eps      Int      T**2         TX        TY        TZ
       cm**-1   L/(mol*cm) km/mol    a.u.
----------------------------------------------------------------------------
  6:    531.68   0.072366  365.71  0.042475  (-0.000003  0.000383  0.206094)
  7:   1067.51   0.002889   14.60  0.000845  ( 0.029060  0.000012  0.000010)
  8:   1096.29   0.002798   14.14  0.000796  (-0.000013  0.028222 -0.000013)
  9:   2387.44   0.010600   53.57  0.001386  ( 0.000000 -0.037223  0.000076)
 10:   2492.42   0.009981   50.44  0.001250  ( 0.035350  0.000000 -0.000000)
 11:   2700.45   0.000116    0.59  0.000013  ( 0.000001 -0.003663  0.000008)

--------------------------
THERMOCHEMISTRY AT 298.15K
--------------------------

Temperature         ...   298.15 K
Pressure            ...     1.00 atm
Total Mass          ...    17.03 AMU
Quasi RRHO          ...     True
Cut-Off Frequency   ...     1.00 cm^-1

Throughout the following assumptions are being made:
  (1) The electronic state is orbitally nondegenerate
  (2) There are no thermally accessible electronically excited states
  (3) Hindered rotations indicated by low frequency modes are not
      treated as such but are treated as vibrations and this may
      cause some error
  (4) All equations used are the standard statistical mechanics
      equations for an ideal gas
  (5) All vibrations are strictly harmonic

freq.     531.68  E(vib)   ...       0.13
freq.    1067.51  E(vib)   ...       0.02
freq.    1096.29  E(vib)   ...       0.02
freq.    2387.44  E(vib)   ...       0.00
freq.    2492.42  E(vib)   ...       0.00
freq.    2700.45  E(vib)   ...       0.00

------------
INNER ENERGY
------------

The inner energy is: U= E(el) + E(ZPE) + E(vib) + E(rot) + E(trans)
    E(el)   - is the total energy from the electronic structure calculation
              = E(kin-el) + E(nuc-el) + E(el-el) + E(nuc-nuc)
    E(ZPE)  - the the zero temperature vibrational energy from the frequency calculation
    E(vib)  - the the finite temperature correction to E(ZPE) due to population
              of excited vibrational states
    E(rot)  - is the rotational thermal energy
    E(trans)- is the translational thermal energy

Summary of contributions to the inner energy U:
Electronic energy                ...    -56.28199737 Eh
Zero point energy                ...      0.02340997 Eh      14.69 kcal/mol
Thermal vibrational correction   ...      0.00025557 Eh       0.16 kcal/mol
Thermal rotational correction    ...      0.00141627 Eh       0.89 kcal/mol
Thermal translational correction ...      0.00141627 Eh       0.89 kcal/mol
-----------------------------------------------------------------------
Total thermal energy                    -56.25549929 Eh

Summary of corrections to the electronic energy:
(perhaps to be used in another calculation)
Total thermal correction                  0.00308811 Eh       1.94 kcal/mol
Non-thermal (ZPE) correction              0.02340997 Eh      14.69 kcal/mol
-----------------------------------------------------------------------
Total correction                          0.02649808 Eh      16.63 kcal/mol

--------
ENTHALPY
--------

The enthalpy is H = U + kB*T
                kB is Boltzmann's constant
Total thermal energy              ...    -56.25549929 Eh
Thermal Enthalpy correction       ...      0.00094421 Eh       0.59 kcal/mol
-----------------------------------------------------------------------
Total Enthalpy                    ...    -56.25455508 Eh

Note: Rotational entropy computed according to Herzberg
Infrared and Raman Spectra, Chapter V,1, Van Nostrand Reinhold, 1945
Point Group:  C2v, Symmetry Number:   2
Rotational constants in cm-1:     9.917150     9.814262     4.932719

Vibrational entropy computed according to the QRRHO of S. Grimme
Chem.Eur.J. 2012 18 9955 using a reference frequency of 100.0 cm-1

-------
ENTROPY
-------

The entropy contributions are T*S = T*(S(el)+S(vib)+S(rot)+S(trans))
     S(el)   - electronic entropy
     S(vib)  - vibrational entropy
     S(rot)  - rotational entropy
     S(trans)- translational entropy
The entropies will be listed as multiplied by the temperature to get
units of energy

Electronic entropy                ...      0.00000000 Eh      0.00 kcal/mol
Vibrational entropy               ...      0.00034174 Eh      0.21 kcal/mol
Rotational entropy                ...      0.00594167 Eh      3.73 kcal/mol
Translational entropy             ...      0.01636425 Eh     10.27 kcal/mol
-----------------------------------------------------------------------
Final entropy term                ...      0.02264766 Eh     14.21 kcal/mol

In case the symmetry of your molecule has not been determined correctly
or in case you have a reason to use a different symmetry number we print
out the resulting rotational entropy values for sn=1,12:

 non-linear molecules -----------------------------------
|  sn= 1 | S(rot)=       0.00659613 Eh      4.14 kcal/mol|
|  sn= 2 | S(rot)=       0.00594167 Eh      3.73 kcal/mol|
|  sn= 3 | S(rot)=       0.00555884 Eh      3.49 kcal/mol|
|  sn= 4 | S(rot)=       0.00528721 Eh      3.32 kcal/mol|
|  sn= 5 | S(rot)=       0.00507653 Eh      3.19 kcal/mol|
|  sn= 6 | S(rot)=       0.00490438 Eh      3.08 kcal/mol|
|  sn= 7 | S(rot)=       0.00475884 Eh      2.99 kcal/mol|
|  sn= 8 | S(rot)=       0.00463276 Eh      2.91 kcal/mol|
|  sn= 9 | S(rot)=       0.00452155 Eh      2.84 kcal/mol|
|  sn=10 | S(rot)=       0.00442207 Eh      2.77 kcal/mol|
|  sn=11 | S(rot)=       0.00433208 Eh      2.72 kcal/mol|
|  sn=12 | S(rot)=       0.00424993 Eh      2.67 kcal/mol|
 linear molecules ---------------------------------------
|  Dinfh | S(rot)=       0.00381900 Eh      2.40 kcal/mol|
|  Cinfv | S(rot)=       0.00447345 Eh      2.81 kcal/mol|
 --------------------------------------------------------

-------------------
GIBBS FREE ENERGY
-------------------

The Gibbs free energy is G = H - T*S

Total enthalpy                    ...    -56.25455508 Eh
Total entropy correction          ...     -0.02264766 Eh    -14.21 kcal/mol
-----------------------------------------------------------------------
Final Gibbs free energy         ...    -56.27720274 Eh

For completeness - the Gibbs free energy minus the electronic energy
G-E(el)                           ...      0.00479463 Eh      3.01 kcal/mol

                             ****ORCA TERMINATED NORMALLY****
TOTAL RUN TIME: 0 days 0 hours 7 minutes 30 seconds 10 msec
