                         Program Version 6.0.1  -  RELEASE   -
|  1> ! B3LYP def2-TZVPP Opt TightOpt VeryTightSCF
|  2>
|  3> %scf
|  4>    MaxIter 400          # MÃ¡ximo de iteraciones permitidas para el SCF
|  5> end
|  6>
|  7> %geom
|  8>    TolRMSD 1.0e-5
|  9>    TolMAXD 1.0e-4
| 10>    TolRMSG 1.0e-5
| 11>    TolMAXG 1.0e-4
| 12> end
| 13>
| 14> %pal
| 15>    nprocs 30
| 16> end
| 17>
| 18> %MaxCore 4000            # Memoria mÃ¡xima por nÃºcleo (en MB)
| 19>
| 20> * xyz 0 1
| 21> C      -1.19880240    0.69212860    0.00000000
| 22> C      -1.19880240   -0.69212860    0.00000000
| 23> C       0.00000000   -1.38425390    0.00000000
| 24> C       1.19880240   -0.69212860    0.00000000
| 25> C       1.19880240    0.69212860    0.00000000
| 26> C       0.00000000    1.38425390    0.00000000
| 27> H      -2.13315490   -1.23157780    0.00000000
| 28> H       0.00000000   -2.46315180    0.00000000
| 29> H       2.13315490   -1.23157780    0.00000000
| 30> H       2.13315490    1.23157780    0.00000000
| 31> H       0.00000000    2.46315180    0.00000000
| 32> H      -2.13315490    1.23157780    0.00000000
| 33> **                         ****END OF INPUT****
 Total Charge           Charge          ....    0
 Multiplicity           Mult            ....    1
 Number of Electrons    NEL             ....   42
FINAL SINGLE POINT ENERGY      -232.185685810333
FINAL SINGLE POINT ENERGY      -232.186011443738
FINAL SINGLE POINT ENERGY      -232.186020264895
FINAL SINGLE POINT ENERGY      -232.186020292706
                    ***********************HURRAY********************

CARTESIAN COORDINATES (ANGSTROEM)
---------------------------------
  C     -1.204956    0.695698   -0.000000
  C     -1.204956   -0.695698   -0.000000
  C     -0.000000   -1.391408    0.000000
  C      1.204956   -0.695698    0.000000
  C      1.204956    0.695698   -0.000000
  C     -0.000000    1.391408   -0.000000
  H     -2.142361   -1.236917   -0.000000
  H     -0.000000   -2.473825   -0.000000
  H      2.142361   -1.236917    0.000000
  H      2.142361    1.236917   -0.000000
  H      0.000000    2.473825   -0.000000
  H     -2.142361    1.236917    0.000000

 Multiplicity           Mult            ....    1
 Number of Electrons    NEL             ....   42
 Basis Dimension        Dim             ....  270

ORBITAL ENERGIES
----------------

  NO   OCC          E(Eh)            E(eV)
   0   2.0000     -10.173904      -276.8460
   1   2.0000     -10.173672      -276.8397
   2   2.0000     -10.173667      -276.8395
   3   2.0000     -10.173087      -276.8238
   4   2.0000     -10.173081      -276.8236
   5   2.0000     -10.172816      -276.8164
   6   2.0000      -0.855010       -23.2660
   7   2.0000      -0.746226       -20.3058
   8   2.0000      -0.746211       -20.3054
   9   2.0000      -0.603052       -16.4099
  10   2.0000      -0.603049       -16.4098
  11   2.0000      -0.525263       -14.2931
  12   2.0000      -0.461033       -12.5453
  13   2.0000      -0.448316       -12.1993
  14   2.0000      -0.422647       -11.5008
  15   2.0000      -0.422635       -11.5005
  16   2.0000      -0.370058       -10.0698
  17   2.0000      -0.345361        -9.3977
  18   2.0000      -0.345356        -9.3976
  19   2.0000      -0.256271        -6.9735
  20   2.0000      -0.256271        -6.9735
  21   0.0000      -0.011661        -0.3173
  22   0.0000      -0.011658        -0.3172
  23   0.0000       0.048039         1.3072
  24   0.0000       0.080875         2.2007
  25   0.0000       0.080878         2.2008

MULLIKEN ATOMIC CHARGES
-----------------------
   0 C :   -0.132283
   1 C :   -0.132267
   2 C :   -0.132729
   3 C :   -0.132267
   4 C :   -0.132286
   5 C :   -0.132703
   6 H :    0.132385
   7 H :    0.132498
   8 H :    0.132383
   9 H :    0.132385
  10 H :    0.132503
  11 H :    0.132381
Sum of atomic charges:    0.0000000

LOEWDIN ATOMIC CHARGES
----------------------
   0 C :   -0.015546
   1 C :   -0.015546
   2 C :   -0.015528
   3 C :   -0.015547
   4 C :   -0.015547
   5 C :   -0.015528
   6 H :    0.015539
   7 H :    0.015542
   8 H :    0.015539
   9 H :    0.015539
  10 H :    0.015542
  11 H :    0.015539

  Mayer bond orders larger than 0.100000
B(  0-C ,  1-C ) :   1.4323 B(  0-C ,  5-C ) :   1.4318 B(  0-C , 11-H ) :   0.9585
B(  1-C ,  2-C ) :   1.4317 B(  1-C ,  6-H ) :   0.9585 B(  2-C ,  3-C ) :   1.4317
B(  2-C ,  7-H ) :   0.9585 B(  3-C ,  4-C ) :   1.4323 B(  3-C ,  8-H ) :   0.9585
B(  4-C ,  5-C ) :   1.4318 B(  4-C ,  9-H ) :   0.9585 B(  5-C , 10-H ) :   0.9585

FINAL SINGLE POINT ENERGY      -232.186020292936

DIPOLE MOMENT
-------------

Method             : SCF
Type of density    : Electron Density
Multiplicity       :   1
Irrep              :   0
Energy             :  -232.1860202929356944 Eh
Relativity type    :
Basis              : AO
                                X                 Y                 Z
Electronic contribution:     -0.000002364      -0.000001672      -0.000000048
Nuclear contribution   :      0.000000115       0.000000066      -0.000000023
                        -----------------------------------------
Total Dipole Moment    :     -0.000002249      -0.000001607      -0.000000071
                        -----------------------------------------
Magnitude (a.u.)       :      0.000002765
Magnitude (Debye)      :      0.000007029

Rotational constants in cm-1:             0.190996             0.190986             0.095495
Rotational constants in MHz :          5725.918830          5725.612772          2862.882899

                             ****ORCA TERMINATED NORMALLY****
TOTAL RUN TIME: 0 days 0 hours 1 minutes 13 seconds 585 msec
