                         Program Version 6.0.1  -  RELEASE   -
|  1> ! B3LYP def2-TZVPP Opt TightOpt VeryTightSCF
|  2>
|  3> ! Freq
|  4> ! NumFreq
|  5>
|  6> %scf
|  7>    MaxIter 400          # MÃ¡ximo de iteraciones permitidas para el SCF
|  8> end
|  9>
| 10> %geom
| 11>    TolRMSD 1.0e-5
| 12>    TolMAXD 1.0e-4
| 13>    TolRMSG 1.0e-5
| 14>    TolMAXG 1.0e-4
| 15> end
| 16>
| 17> %tddft
| 18>   nroots 10
| 19> end
| 20>
| 21> %pal
| 22>    nprocs 1
| 23> end
| 24>
| 25>
| 26> %MaxCore 4000            # Memoria mÃ¡xima por nÃºcleo (en MB)
| 27>
| 28> * xyz 0 1
| 29> N       0.00000000    0.00000000    0.11361500
| 30> H       0.00000000    0.93799100   -0.26510100
| 31> H      -0.81232400   -0.46899600   -0.26510100
| 32> H       0.81232400   -0.46899600   -0.26510100
| 33> **                         ****END OF INPUT****
 Total Charge           Charge          ....    0
 Multiplicity           Mult            ....    1
 Number of Electrons    NEL             ....   10
FINAL SINGLE POINT ENERGY       -56.306904281649
FINAL SINGLE POINT ENERGY       -56.320178248655
FINAL SINGLE POINT ENERGY       -56.325934984502
FINAL SINGLE POINT ENERGY       -56.327632334072
FINAL SINGLE POINT ENERGY       -56.328195445307
FINAL SINGLE POINT ENERGY       -56.328394292239
FINAL SINGLE POINT ENERGY       -56.328416599952
FINAL SINGLE POINT ENERGY       -56.328424310806
FINAL SINGLE POINT ENERGY       -56.328424547877
FINAL SINGLE POINT ENERGY       -56.328442597769
FINAL SINGLE POINT ENERGY       -56.328423118902
FINAL SINGLE POINT ENERGY       -56.328424025764
FINAL SINGLE POINT ENERGY       -56.328422704235
FINAL SINGLE POINT ENERGY       -56.328424132499
                    ***********************HURRAY********************

CARTESIAN COORDINATES (ANGSTROEM)
---------------------------------
  N      0.000000   -0.000576   -0.170107
  H     -0.000000    1.062828   -0.172366
  H     -0.915567   -0.531126   -0.169607
  H      0.915567   -0.531126   -0.169607

 Multiplicity           Mult            ....    1
 Number of Electrons    NEL             ....   10
 Basis Dimension        Dim             ....   73

ORBITAL ENERGIES
----------------

  NO   OCC          E(Eh)            E(eV)
   0   2.0000     -14.288154      -388.8004
   1   2.0000      -0.807738       -21.9797
   2   2.0000      -0.457650       -12.4533
   3   2.0000      -0.457206       -12.4412
   4   2.0000      -0.230669        -6.2768
   5   0.0000       0.020646         0.5618
   6   0.0000       0.103344         2.8121
   7   0.0000       0.104042         2.8311
   8   0.0000       0.298757         8.1296
   9   0.0000       0.299190         8.1414

----------------------------------------------------------------------------------------------------
                     ABSORPTION SPECTRUM VIA TRANSITION ELECTRIC DIPOLE MOMENTS
----------------------------------------------------------------------------------------------------
     Transition      Energy     Energy  Wavelength fosc(D2)      D2        DX        DY        DZ
                      (eV)      (cm-1)    (nm)                 (au**2)    (au)      (au)      (au)
----------------------------------------------------------------------------------------------------
  0-1A  ->  1-1A    5.631561   45421.6   220.2   0.022182591   0.16078  -0.00000   0.00069   0.40097
  0-1A  ->  2-1A    7.517969   60636.5   164.9   0.000006343   0.00003   0.00000  -0.00055  -0.00584
  0-1A  ->  3-1A    7.536720   60787.7   164.5   0.000000051   0.00000   0.00053  -0.00000   0.00000
  0-1A  ->  4-1A   11.922304   96159.9   104.0   0.218938417   0.74956  -0.86577  -0.00008   0.00000
  0-1A  ->  5-1A   11.924794   96180.0   104.0   0.225360297   0.77138   0.00008  -0.87828   0.00152
  0-1A  ->  6-1A   12.604612  101663.1    98.4   0.000000069   0.00000   0.00047   0.00000   0.00000
  0-1A  ->  7-1A   12.610915  101713.9    98.3   0.000016813   0.00005   0.00000   0.00048   0.00736
  0-1A  ->  8-1A   13.771005  111070.7    90.0   0.000147207   0.00044   0.02089   0.00000  -0.00000
  0-1A  ->  9-1A   13.867453  111848.6    89.4   0.000748209   0.00220  -0.00000   0.04692  -0.00061
  0-1A  -> 10-1A   14.023041  113103.5    88.4   0.218549854   0.63614   0.00007  -0.79758   0.00136

MULLIKEN ATOMIC CHARGES
-----------------------
   0 N :    0.567029
   1 H :   -0.193331
   2 H :   -0.186849
   3 H :   -0.186849
Sum of atomic charges:   -0.0000000

LOEWDIN ATOMIC CHARGES
----------------------
   0 N :    0.677078
   1 H :   -0.227439
   2 H :   -0.224820
   3 H :   -0.224820

  Mayer bond orders larger than 0.100000
B(  0-N ,  1-H ) :   0.4053 B(  0-N ,  2-H ) :   0.4260 B(  0-N ,  3-H ) :   0.4260
B(  1-H ,  2-H ) :   0.2348 B(  1-H ,  3-H ) :   0.2348 B(  2-H ,  3-H ) :   0.2297

FINAL SINGLE POINT ENERGY       -56.328424888977

DIPOLE MOMENT
-------------

Method             : TDA/CIS
Type of density    : Electron Density
Level              : Relaxed density
State              :   1
Multiplicity       :   1
Irrep              :   0
Energy             :     0.0000000000000000 Eh
Relativity type    :
Basis              : AO
                                X                 Y                 Z
Electronic contribution:      0.000000009      -0.022474436       0.001180419
Nuclear contribution   :     -0.000000048       0.001777440      -0.000972374
                        -----------------------------------------
Total Dipole Moment    :     -0.000000040      -0.020696996       0.000208044
                        -----------------------------------------
Magnitude (a.u.)       :      0.020698042
Magnitude (Debye)      :      0.052610241

VIBRATIONAL FREQUENCIES
-----------------------

Scaling factor for frequencies =  1.000000000  (already applied!)

     0:       0.00 cm**-1
     1:       0.00 cm**-1
     2:       0.00 cm**-1
     3:       0.00 cm**-1
     4:       0.00 cm**-1
     5:       0.00 cm**-1
     6:     495.65 cm**-1
     7:    1300.14 cm**-1
     8:    1313.47 cm**-1
     9:    2426.72 cm**-1
    10:    2541.41 cm**-1
    11:    2694.50 cm**-1

IR SPECTRUM
-----------

 Mode   freq       eps      Int      T**2         TX        TY        TZ
       cm**-1   L/(mol*cm) km/mol    a.u.
----------------------------------------------------------------------------
  6:    495.65   0.072788  367.84  0.045827  (-0.000001  0.001133  0.214071)
  7:   1300.14   0.003721   18.80  0.000893  ( 0.029884  0.000033 -0.000000)
  8:   1313.47   0.003287   16.61  0.000781  ( 0.000035 -0.027896  0.001657)
  9:   2426.72   0.008790   44.42  0.001130  ( 0.000000  0.033617 -0.000510)
 10:   2541.41   0.008841   44.68  0.001086  ( 0.032948 -0.000000  0.000000)
 11:   2694.50   0.000294    1.48  0.000034  ( 0.000001 -0.005750 -0.000969)

--------------------------
THERMOCHEMISTRY AT 298.15K
--------------------------

Temperature         ...   298.15 K
Pressure            ...     1.00 atm
Total Mass          ...    17.03 AMU
Quasi RRHO          ...     True
Cut-Off Frequency   ...     1.00 cm^-1

Throughout the following assumptions are being made:
  (1) The electronic state is orbitally nondegenerate
  (2) There are no thermally accessible electronically excited states
  (3) Hindered rotations indicated by low frequency modes are not
      treated as such but are treated as vibrations and this may
      cause some error
  (4) All equations used are the standard statistical mechanics
      equations for an ideal gas
  (5) All vibrations are strictly harmonic

freq.     495.65  E(vib)   ...       0.14
freq.    1300.14  E(vib)   ...       0.01
freq.    1313.47  E(vib)   ...       0.01
freq.    2426.72  E(vib)   ...       0.00
freq.    2541.41  E(vib)   ...       0.00
freq.    2694.50  E(vib)   ...       0.00

------------
INNER ENERGY
------------

The inner energy is: U= E(el) + E(ZPE) + E(vib) + E(rot) + E(trans)
    E(el)   - is the total energy from the electronic structure calculation
              = E(kin-el) + E(nuc-el) + E(el-el) + E(nuc-nuc)
    E(ZPE)  - the the zero temperature vibrational energy from the frequency calculation
    E(vib)  - the the finite temperature correction to E(ZPE) due to population
              of excited vibrational states
    E(rot)  - is the rotational thermal energy
    E(trans)- is the translational thermal energy

Summary of contributions to the inner energy U:
Electronic energy                ...    -56.32842488 Eh
Zero point energy                ...      0.02454020 Eh      15.40 kcal/mol
Thermal vibrational correction   ...      0.00024931 Eh       0.16 kcal/mol
Thermal rotational correction    ...      0.00141627 Eh       0.89 kcal/mol
Thermal translational correction ...      0.00141627 Eh       0.89 kcal/mol
-----------------------------------------------------------------------
Total thermal energy                    -56.30080282 Eh

Summary of corrections to the electronic energy:
(perhaps to be used in another calculation)
Total thermal correction                  0.00308185 Eh       1.93 kcal/mol
Non-thermal (ZPE) correction              0.02454020 Eh      15.40 kcal/mol
-----------------------------------------------------------------------
Total correction                          0.02762206 Eh      17.33 kcal/mol

--------
ENTHALPY
--------

The enthalpy is H = U + kB*T
                kB is Boltzmann's constant
Total thermal energy              ...    -56.30080282 Eh
Thermal Enthalpy correction       ...      0.00094421 Eh       0.59 kcal/mol
-----------------------------------------------------------------------
Total Enthalpy                    ...    -56.29985861 Eh

Note: Rotational entropy computed according to Herzberg
Infrared and Raman Spectra, Chapter V,1, Van Nostrand Reinhold, 1945
Point Group:  Cs, Symmetry Number:   1
Rotational constants in cm-1:     9.975301     9.873573     4.962089

Vibrational entropy computed according to the QRRHO of S. Grimme
Chem.Eur.J. 2012 18 9955 using a reference frequency of 100.0 cm-1

-------
ENTROPY
-------

The entropy contributions are T*S = T*(S(el)+S(vib)+S(rot)+S(trans))
     S(el)   - electronic entropy
     S(vib)  - vibrational entropy
     S(rot)  - rotational entropy
     S(trans)- translational entropy
The entropies will be listed as multiplied by the temperature to get
units of energy

Electronic entropy                ...      0.00000000 Eh      0.00 kcal/mol
Vibrational entropy               ...      0.00034380 Eh      0.22 kcal/mol
Rotational entropy                ...      0.00658772 Eh      4.13 kcal/mol
Translational entropy             ...      0.01636425 Eh     10.27 kcal/mol
-----------------------------------------------------------------------
Final entropy term                ...      0.02329577 Eh     14.62 kcal/mol

In case the symmetry of your molecule has not been determined correctly
or in case you have a reason to use a different symmetry number we print
out the resulting rotational entropy values for sn=1,12:

 non-linear molecules -----------------------------------
|  sn= 1 | S(rot)=       0.00658772 Eh      4.13 kcal/mol|
|  sn= 2 | S(rot)=       0.00593326 Eh      3.72 kcal/mol|
|  sn= 3 | S(rot)=       0.00555043 Eh      3.48 kcal/mol|
|  sn= 4 | S(rot)=       0.00527881 Eh      3.31 kcal/mol|
|  sn= 5 | S(rot)=       0.00506812 Eh      3.18 kcal/mol|
|  sn= 6 | S(rot)=       0.00489597 Eh      3.07 kcal/mol|
|  sn= 7 | S(rot)=       0.00475043 Eh      2.98 kcal/mol|
|  sn= 8 | S(rot)=       0.00462435 Eh      2.90 kcal/mol|
|  sn= 9 | S(rot)=       0.00451314 Eh      2.83 kcal/mol|
|  sn=10 | S(rot)=       0.00441366 Eh      2.77 kcal/mol|
|  sn=11 | S(rot)=       0.00432367 Eh      2.71 kcal/mol|
|  sn=12 | S(rot)=       0.00424152 Eh      2.66 kcal/mol|
 linear molecules ---------------------------------------
|  Dinfh | S(rot)=       0.00381339 Eh      2.39 kcal/mol|
|  Cinfv | S(rot)=       0.00446785 Eh      2.80 kcal/mol|
 --------------------------------------------------------

-------------------
GIBBS FREE ENERGY
-------------------

The Gibbs free energy is G = H - T*S

Total enthalpy                    ...    -56.29985861 Eh
Total entropy correction          ...     -0.02329577 Eh    -14.62 kcal/mol
-----------------------------------------------------------------------
Final Gibbs free energy         ...    -56.32315438 Eh

For completeness - the Gibbs free energy minus the electronic energy
G-E(el)                           ...      0.00527049 Eh      3.31 kcal/mol

                             ****ORCA TERMINATED NORMALLY****
TOTAL RUN TIME: 0 days 0 hours 7 minutes 29 seconds 211 msec
