                         Program Version 6.0.1  -  RELEASE   -
|  1> ! HFS def2-TZVPP Opt TightOpt VeryTightSCF
|  2>
|  3> ! Freq
|  4> ! NumFreq
|  5>
|  6> %scf
|  7>    MaxIter 400          # MÃ¡ximo de iteraciones permitidas para el SCF
|  8> end
|  9>
| 10> %geom
| 11>    TolRMSD 1.0e-5
| 12>    TolMAXD 1.0e-4
| 13>    TolRMSG 1.0e-5
| 14>    TolMAXG 1.0e-4
| 15> end
| 16>
| 17>
| 18> %tddft
| 19>   nroots 10
| 20> end
| 21>
| 22> %pal
| 23>    nprocs 1
| 24> end
| 25>
| 26>
| 27> %MaxCore 4000            # Memoria mÃ¡xima por nÃºcleo (en MB)
| 28>
| 29> * xyz 0 1
| 30> Cl     0.000000    0.000000    0.074144
| 31> H      0.000000    0.000000   -1.208014
| 32> **                         ****END OF INPUT****
 Total Charge           Charge          ....    0
 Multiplicity           Mult            ....    1
 Number of Electrons    NEL             ....   18
FINAL SINGLE POINT ENERGY      -432.634014169822
FINAL SINGLE POINT ENERGY      -432.685641556778
FINAL SINGLE POINT ENERGY      -432.719048175943
FINAL SINGLE POINT ENERGY      -432.742245689045
FINAL SINGLE POINT ENERGY      -432.758546093278
FINAL SINGLE POINT ENERGY      -432.769777340416
FINAL SINGLE POINT ENERGY      -432.777239414216
FINAL SINGLE POINT ENERGY      -432.781924770269
FINAL SINGLE POINT ENERGY      -432.784633187162
FINAL SINGLE POINT ENERGY      -432.785980818438
FINAL SINGLE POINT ENERGY      -432.786417292469
FINAL SINGLE POINT ENERGY      -432.786435629108
FINAL SINGLE POINT ENERGY      -432.786410763038
FINAL SINGLE POINT ENERGY      -432.786407822336
FINAL SINGLE POINT ENERGY      -432.786412673023
FINAL SINGLE POINT ENERGY      -432.786398509206
FINAL SINGLE POINT ENERGY      -432.786405440543
                    ***********************HURRAY********************

CARTESIAN COORDINATES (ANGSTROEM)
---------------------------------
  Cl     0.000000    0.000000    0.920444
  H      0.000000    0.000000   -2.054314

 Multiplicity           Mult            ....    1
 Number of Electrons    NEL             ....   18
 Basis Dimension        Dim             ....   56

ORBITAL ENERGIES
----------------

  NO   OCC          E(Eh)            E(eV)
   0   2.0000     -95.422116     -2596.5678
   1   2.0000      -7.875740      -214.3098
   2   2.0000      -5.746698      -156.3756
   3   2.0000      -5.731060      -155.9501
   4   2.0000      -5.731060      -155.9501
   5   2.0000      -0.377303       -10.2669
   6   2.0000      -0.039885        -1.0853
   7   2.0000       0.017904         0.4872
   8   2.0000       0.017904         0.4872
   9   0.0000       0.012465         0.3392
  10   0.0000       0.421411        11.4672
  11   0.0000       0.515763        14.0346
  12   0.0000       0.530893        14.4463
  13   0.0000       0.530893        14.4463

----------------------------------------------------------------------------------------------------
                     ABSORPTION SPECTRUM VIA TRANSITION ELECTRIC DIPOLE MOMENTS
----------------------------------------------------------------------------------------------------
     Transition      Energy     Energy  Wavelength fosc(D2)      D2        DX        DY        DZ
                      (eV)      (cm-1)    (nm)                 (au**2)    (au)      (au)      (au)
----------------------------------------------------------------------------------------------------
  0-1A  ->  1-1A    0.436040    3516.9  2843.4   0.000039443   0.00369   0.05784   0.01861  -0.00000
  0-1A  ->  2-1A    0.436040    3516.9  2843.4   0.000039443   0.00369   0.01861  -0.05784  -0.00000
  0-1A  ->  3-1A    7.568472   61043.8   163.8   2.676820961  14.43620   0.00000  -0.00000  -3.79950
  0-1A  ->  4-1A   11.019919   88881.7   112.5   0.008971340   0.03323   0.17321   0.05682   0.00000
  0-1A  ->  5-1A   11.019919   88881.7   112.5   0.008971340   0.03323  -0.05682   0.17321  -0.00000
  0-1A  ->  6-1A   11.731365   94619.8   105.7   0.018669781   0.06496   0.00000  -0.00000  -0.25487
  0-1A  ->  7-1A   13.883972  111981.8    89.3   0.001187610   0.00349  -0.05598  -0.01892   0.00000
  0-1A  ->  8-1A   13.883972  111981.8    89.3   0.001187610   0.00349  -0.01892   0.05598   0.00000
  0-1A  ->  9-1A   13.959157  112588.2    88.8   0.000000000   0.00000   0.00000   0.00000  -0.00000
  0-1A  -> 10-1A   14.808568  119439.2    83.7   0.000000000   0.00000   0.00000  -0.00000   0.00000

MULLIKEN ATOMIC CHARGES
-----------------------
   0 Cl:    0.117843
   1 H :   -0.117843
Sum of atomic charges:   -0.0000000

LOEWDIN ATOMIC CHARGES
----------------------
   0 Cl:    0.117528
   1 H :   -0.117528

  Mayer bond orders larger than 0.100000
B(  0-Cl,  1-H ) :   0.2392

FINAL SINGLE POINT ENERGY      -432.786402248298

DIPOLE MOMENT
-------------

Method             : TDA/CIS
Type of density    : Electron Density
Level              : Relaxed density
State              :   1
Multiplicity       :   1
Irrep              :   0
Energy             :     0.0000000000000000 Eh
Relativity type    :
Basis              : AO
                                X                 Y                 Z
Electronic contribution:      0.000000006       0.000000001       3.454719214
Nuclear contribution   :      0.000000000       0.000000000      -2.824074965
                        -----------------------------------------
Total Dipole Moment    :      0.000000006       0.000000001       0.630644248
                        -----------------------------------------
Magnitude (a.u.)       :      0.630644248
Magnitude (Debye)      :      1.602970289

VIBRATIONAL FREQUENCIES
-----------------------

Scaling factor for frequencies =  1.000000000  (already applied!)

     0:       0.00 cm**-1
     1:       0.00 cm**-1
     2:       0.00 cm**-1
     3:       0.00 cm**-1
     4:       0.00 cm**-1
     5:     359.68 cm**-1

IR SPECTRUM
-----------

 Mode   freq       eps      Int      T**2         TX        TY        TZ
       cm**-1   L/(mol*cm) km/mol    a.u.
----------------------------------------------------------------------------
  5:    359.68   0.000000    0.00  0.000000  ( 0.000000 -0.000000 -0.000615)

--------------------------
THERMOCHEMISTRY AT 298.15K
--------------------------

Temperature         ...   298.15 K
Pressure            ...     1.00 atm
Total Mass          ...    36.46 AMU
Quasi RRHO          ...     True
Cut-Off Frequency   ...     1.00 cm^-1
The molecule is recognized as being linear

Throughout the following assumptions are being made:
  (1) The electronic state is orbitally nondegenerate
  (2) There are no thermally accessible electronically excited states
  (3) Hindered rotations indicated by low frequency modes are not
      treated as such but are treated as vibrations and this may
      cause some error
  (4) All equations used are the standard statistical mechanics
      equations for an ideal gas
  (5) All vibrations are strictly harmonic

freq.     359.68  E(vib)   ...       0.22

------------
INNER ENERGY
------------

The inner energy is: U= E(el) + E(ZPE) + E(vib) + E(rot) + E(trans)
    E(el)   - is the total energy from the electronic structure calculation
              = E(kin-el) + E(nuc-el) + E(el-el) + E(nuc-nuc)
    E(ZPE)  - the the zero temperature vibrational energy from the frequency calculation
    E(vib)  - the the finite temperature correction to E(ZPE) due to population
              of excited vibrational states
    E(rot)  - is the rotational thermal energy
    E(trans)- is the translational thermal energy

Summary of contributions to the inner energy U:
Electronic energy                ...   -432.78640443 Eh
Zero point energy                ...      0.00081940 Eh       0.51 kcal/mol
Thermal vibrational correction   ...      0.00035073 Eh       0.22 kcal/mol
Thermal rotational correction    ...      0.00094418 Eh       0.59 kcal/mol
Thermal translational correction ...      0.00141627 Eh       0.89 kcal/mol
-----------------------------------------------------------------------
Total thermal energy                   -432.78287385 Eh

Summary of corrections to the electronic energy:
(perhaps to be used in another calculation)
Total thermal correction                  0.00271118 Eh       1.70 kcal/mol
Non-thermal (ZPE) correction              0.00081940 Eh       0.51 kcal/mol
-----------------------------------------------------------------------
Total correction                          0.00353059 Eh       2.22 kcal/mol

--------
ENTHALPY
--------

The enthalpy is H = U + kB*T
                kB is Boltzmann's constant
Total thermal energy              ...   -432.78287385 Eh
Thermal Enthalpy correction       ...      0.00094421 Eh       0.59 kcal/mol
-----------------------------------------------------------------------
Total Enthalpy                    ...   -432.78192964 Eh

Note: Rotational entropy computed according to Herzberg
Infrared and Raman Spectra, Chapter V,1, Van Nostrand Reinhold, 1945
Point Group:  C(inf)v, Symmetry Number:   1
Rotational constants in cm-1:     0.000000     1.943609     1.943609

Vibrational entropy computed according to the QRRHO of S. Grimme
Chem.Eur.J. 2012 18 9955 using a reference frequency of 100.0 cm-1

-------
ENTROPY
-------

The entropy contributions are T*S = T*(S(el)+S(vib)+S(rot)+S(trans))
     S(el)   - electronic entropy
     S(vib)  - vibrational entropy
     S(rot)  - rotational entropy
     S(trans)- translational entropy
The entropies will be listed as multiplied by the temperature to get
units of energy

Electronic entropy                ...      0.00000000 Eh      0.00 kcal/mol
Vibrational entropy               ...      0.00053510 Eh      0.34 kcal/mol
Rotational entropy                ...      0.00535281 Eh      3.36 kcal/mol
Translational entropy             ...      0.01744233 Eh     10.95 kcal/mol
-----------------------------------------------------------------------
Final entropy term                ...      0.02333024 Eh     14.64 kcal/mol

-------------------
GIBBS FREE ENERGY
-------------------

The Gibbs free energy is G = H - T*S

Total enthalpy                    ...   -432.78192964 Eh
Total entropy correction          ...     -0.02333024 Eh    -14.64 kcal/mol
-----------------------------------------------------------------------
Final Gibbs free energy         ...   -432.80525988 Eh

For completeness - the Gibbs free energy minus the electronic energy
G-E(el)                           ...     -0.01885545 Eh    -11.83 kcal/mol

                             ****ORCA TERMINATED NORMALLY****
TOTAL RUN TIME: 0 days 0 hours 3 minutes 23 seconds 623 msec
