                         Program Version 6.0.1  -  RELEASE   -
|  1> ! PBE0 def2-TZVPP Opt TightOpt VeryTightSCF
|  2>
|  3> %scf
|  4>    MaxIter 400          # MÃ¡ximo de iteraciones permitidas para el SCF
|  5> end
|  6>
|  7> %geom
|  8>    TolRMSD 1.0e-5
|  9>    TolMAXD 1.0e-4
| 10>    TolRMSG 1.0e-5
| 11>    TolMAXG 1.0e-4
| 12> end
| 13>
| 14> %pal
| 15>    nprocs 30
| 16> end
| 17>
| 18> %MaxCore 4000            # Memoria mÃ¡xima por nÃºcleo (en MB)
| 19>
| 20> * xyz 0 1
| 21> C      -1.19880240    0.69212860    0.00000000
| 22> C      -1.19880240   -0.69212860    0.00000000
| 23> C       0.00000000   -1.38425390    0.00000000
| 24> C       1.19880240   -0.69212860    0.00000000
| 25> C       1.19880240    0.69212860    0.00000000
| 26> C       0.00000000    1.38425390    0.00000000
| 27> H      -2.13315490   -1.23157780    0.00000000
| 28> H       0.00000000   -2.46315180    0.00000000
| 29> H       2.13315490   -1.23157780    0.00000000
| 30> H       2.13315490    1.23157780    0.00000000
| 31> H       0.00000000    2.46315180    0.00000000
| 32> H      -2.13315490    1.23157780    0.00000000
| 33> **                         ****END OF INPUT****
 Total Charge           Charge          ....    0
 Multiplicity           Mult            ....    1
 Number of Electrons    NEL             ....   42
FINAL SINGLE POINT ENERGY      -232.047546930079
FINAL SINGLE POINT ENERGY      -232.047702524185
FINAL SINGLE POINT ENERGY      -232.047704002903
FINAL SINGLE POINT ENERGY      -232.047704018628
                    ***********************HURRAY********************

CARTESIAN COORDINATES (ANGSTROEM)
---------------------------------
  C     -1.201786    0.693887    0.000000
  C     -1.201786   -0.693887   -0.000000
  C     -0.000000   -1.387784    0.000000
  C      1.201786   -0.693887    0.000000
  C      1.201786    0.693887   -0.000000
  C      0.000000    1.387784    0.000000
  H     -2.140178   -1.235665   -0.000000
  H     -0.000000   -2.471334    0.000000
  H      2.140178   -1.235665   -0.000000
  H      2.140178    1.235665   -0.000000
  H     -0.000000    2.471334    0.000000
  H     -2.140178    1.235665    0.000000

 Multiplicity           Mult            ....    1
 Number of Electrons    NEL             ....   42
 Basis Dimension        Dim             ....  270

ORBITAL ENERGIES
----------------

  NO   OCC          E(Eh)            E(eV)
   0   2.0000     -10.227184      -278.2958
   1   2.0000     -10.226917      -278.2885
   2   2.0000     -10.226910      -278.2884
   3   2.0000     -10.226271      -278.2710
   4   2.0000     -10.226264      -278.2708
   5   2.0000     -10.225965      -278.2627
   6   2.0000      -0.884096       -24.0575
   7   2.0000      -0.771134       -20.9836
   8   2.0000      -0.771106       -20.9828
   9   2.0000      -0.622941       -16.9511
  10   2.0000      -0.622935       -16.9509
  11   2.0000      -0.542920       -14.7736
  12   2.0000      -0.474731       -12.9181
  13   2.0000      -0.464144       -12.6300
  14   2.0000      -0.435579       -11.8527
  15   2.0000      -0.435556       -11.8521
  16   2.0000      -0.387014       -10.5312
  17   2.0000      -0.355568        -9.6755
  18   2.0000      -0.355564        -9.6754
  19   2.0000      -0.268396        -7.3034
  20   2.0000      -0.268388        -7.3032
  21   0.0000      -0.006970        -0.1897
  22   0.0000      -0.006969        -0.1896
  23   0.0000       0.056822         1.5462
  24   0.0000       0.091433         2.4880
  25   0.0000       0.091433         2.4880

MULLIKEN ATOMIC CHARGES
-----------------------
   0 C :   -0.121445
   1 C :   -0.121379
   2 C :   -0.121997
   3 C :   -0.121338
   4 C :   -0.121458
   5 C :   -0.121974
   6 H :    0.121541
   7 H :    0.121648
   8 H :    0.121553
   9 H :    0.121540
  10 H :    0.121762
  11 H :    0.121548
Sum of atomic charges:    0.0000000

LOEWDIN ATOMIC CHARGES
----------------------
   0 C :   -0.017863
   1 C :   -0.017863
   2 C :   -0.017858
   3 C :   -0.017863
   4 C :   -0.017863
   5 C :   -0.017858
   6 H :    0.017860
   7 H :    0.017865
   8 H :    0.017860
   9 H :    0.017860
  10 H :    0.017865
  11 H :    0.017860

  Mayer bond orders larger than 0.100000
B(  0-C ,  1-C ) :   1.4505 B(  0-C ,  5-C ) :   1.4499 B(  0-C , 11-H ) :   0.9610
B(  1-C ,  2-C ) :   1.4498 B(  1-C ,  6-H ) :   0.9611 B(  2-C ,  3-C ) :   1.4498
B(  2-C ,  7-H ) :   0.9611 B(  3-C ,  4-C ) :   1.4505 B(  3-C ,  8-H ) :   0.9610
B(  4-C ,  5-C ) :   1.4499 B(  4-C ,  9-H ) :   0.9611 B(  5-C , 10-H ) :   0.9610

FINAL SINGLE POINT ENERGY      -232.047704018341

DIPOLE MOMENT
-------------

Method             : SCF
Type of density    : Electron Density
Multiplicity       :   1
Irrep              :   0
Energy             :  -232.0477040183411646 Eh
Relativity type    :
Basis              : AO
                                X                 Y                 Z
Electronic contribution:      0.000000299      -0.000000115       0.000000128
Nuclear contribution   :     -0.000000228       0.000000115       0.000000161
                        -----------------------------------------
Total Dipole Moment    :      0.000000071       0.000000000       0.000000288
                        -----------------------------------------
Magnitude (a.u.)       :      0.000000297
Magnitude (Debye)      :      0.000000755

Rotational constants in cm-1:             0.191875             0.191856             0.095933
Rotational constants in MHz :          5752.266444          5751.692331          2875.989687

                             ****ORCA TERMINATED NORMALLY****
TOTAL RUN TIME: 0 days 0 hours 1 minutes 12 seconds 564 msec
