                         Program Version 6.0.1  -  RELEASE   -
|  1> ! LDA def2-TZVPP Opt TightOpt VeryTightSCF
|  2>
|  3>
|  4> ! Freq
|  5> ! NumFreq
|  6>
|  7> %scf
|  8>    MaxIter 400          # MÃ¡ximo de iteraciones permitidas para el SCF
|  9> end
| 10>
| 11> %geom
| 12>    TolRMSD 1.0e-5
| 13>    TolMAXD 1.0e-4
| 14>    TolRMSG 1.0e-5
| 15>    TolMAXG 1.0e-4
| 16> end
| 17>
| 18>
| 19> %tddft
| 20>   nroots 10
| 21> end
| 22>
| 23> %pal
| 24>    nprocs 1
| 25> end
| 26>
| 27>
| 28> %MaxCore 4000            # Memoria mÃ¡xima por nÃºcleo (en MB)
| 29>
| 30> * xyz 0 1
| 31> Cl     0.000000    0.000000    0.074144
| 32> H      0.000000    0.000000   -1.208014
| 33> *
| 34>
| 35>                          ****END OF INPUT****
 Total Charge           Charge          ....    0
 Multiplicity           Mult            ....    1
 Number of Electrons    NEL             ....   18
FINAL SINGLE POINT ENERGY      -459.040769782513
FINAL SINGLE POINT ENERGY      -459.079829201235
FINAL SINGLE POINT ENERGY      -459.104001609536
FINAL SINGLE POINT ENERGY      -459.118228631982
FINAL SINGLE POINT ENERGY      -459.125610459742
FINAL SINGLE POINT ENERGY      -459.128166153947
FINAL SINGLE POINT ENERGY      -459.128665506900
FINAL SINGLE POINT ENERGY      -459.128713504806
FINAL SINGLE POINT ENERGY      -459.128716891163
FINAL SINGLE POINT ENERGY      -459.128727877644
FINAL SINGLE POINT ENERGY      -459.128704589622
FINAL SINGLE POINT ENERGY      -459.128714973772
                    ***********************HURRAY********************

CARTESIAN COORDINATES (ANGSTROEM)
---------------------------------
  Cl     0.000000    0.000000    0.507709
  H      0.000000    0.000000   -1.641579

 Multiplicity           Mult            ....    1
 Number of Electrons    NEL             ....   18
 Basis Dimension        Dim             ....   56

ORBITAL ENERGIES
----------------

  NO   OCC          E(Eh)            E(eV)
   0   2.0000    -100.312405     -2729.6393
   1   2.0000      -9.144205      -248.8265
   2   2.0000      -7.006302      -190.6512
   3   2.0000      -6.992488      -190.2753
   4   2.0000      -6.992488      -190.2753
   5   2.0000      -0.719402       -19.5759
   6   2.0000      -0.348857        -9.4929
   7   2.0000      -0.278644        -7.5823
   8   2.0000      -0.278644        -7.5823
   9   0.0000      -0.216966        -5.9039
  10   0.0000       0.199568         5.4305
  11   0.0000       0.301601         8.2070
  12   0.0000       0.301601         8.2070
  13   0.0000       0.305802         8.3213

----------------------------------------------------------------------------------------------------
                     ABSORPTION SPECTRUM VIA TRANSITION ELECTRIC DIPOLE MOMENTS
----------------------------------------------------------------------------------------------------
     Transition      Energy     Energy  Wavelength fosc(D2)      D2        DX        DY        DZ
                      (eV)      (cm-1)    (nm)                 (au**2)    (au)      (au)      (au)
----------------------------------------------------------------------------------------------------
  0-1A  ->  1-1A    2.040132   16454.8   607.7   0.000258277   0.00517  -0.06402  -0.03269  -0.00000
  0-1A  ->  2-1A    2.040132   16454.8   607.7   0.000258277   0.00517  -0.03269   0.06402  -0.00000
  0-1A  ->  3-1A    8.361222   67437.8   148.3   1.361809229   6.64796  -0.00000  -0.00000  -2.57836
  0-1A  ->  4-1A   13.053743  105285.6    95.0   0.038422655   0.12014  -0.26244  -0.22642  -0.00000
  0-1A  ->  5-1A   13.053743  105285.6    95.0   0.038422655   0.12014   0.22642  -0.26244   0.00000
  0-1A  ->  6-1A   14.396970  116119.4    86.1   0.020467261   0.05803   0.00000  -0.00000  -0.24089
  0-1A  ->  7-1A   15.644561  126181.9    79.3   0.000345928   0.00090  -0.00000  -0.00000  -0.03004
  0-1A  ->  8-1A   15.789278  127349.1    78.5   0.000000000   0.00000  -0.00000   0.00000   0.00000
  0-1A  ->  9-1A   15.906327  128293.2    77.9   0.000000000   0.00000   0.00000   0.00000  -0.00000
  0-1A  -> 10-1A   15.907275  128300.8    77.9   0.000000000   0.00000   0.00000  -0.00000   0.00000

MULLIKEN ATOMIC CHARGES
-----------------------
   0 Cl:   -0.048815
   1 H :    0.048815
Sum of atomic charges:    0.0000000

LOEWDIN ATOMIC CHARGES
----------------------
   0 Cl:    0.004666
   1 H :   -0.004666

  Mayer bond orders larger than 0.100000
B(  0-Cl,  1-H ) :   0.1292

FINAL SINGLE POINT ENERGY      -459.128714992775

DIPOLE MOMENT
-------------

Method             : TDA/CIS
Type of density    : Electron Density
Level              : Relaxed density
State              :   1
Multiplicity       :   1
Irrep              :   0
Energy             :     0.0000000000000000 Eh
Relativity type    :
Basis              : AO
                                X                 Y                 Z
Electronic contribution:     -0.000000000      -0.000000000       1.927025199
Nuclear contribution   :      0.000000000       0.000000000      -2.040419376
                        -----------------------------------------
Total Dipole Moment    :     -0.000000000      -0.000000000      -0.113394177
                        -----------------------------------------
Magnitude (a.u.)       :      0.113394177
Magnitude (Debye)      :      0.288225092

VIBRATIONAL FREQUENCIES
-----------------------

Scaling factor for frequencies =  1.000000000  (already applied!)

     0:       0.00 cm**-1
     1:       0.00 cm**-1
     2:       0.00 cm**-1
     3:       0.00 cm**-1
     4:       0.00 cm**-1
     5:     809.77 cm**-1

IR SPECTRUM
-----------

 Mode   freq       eps      Int      T**2         TX        TY        TZ
       cm**-1   L/(mol*cm) km/mol    a.u.
----------------------------------------------------------------------------
  5:    809.77   0.006914   34.94  0.002664  (-0.000000 -0.000000  0.051617)

--------------------------
THERMOCHEMISTRY AT 298.15K
--------------------------

Temperature         ...   298.15 K
Pressure            ...     1.00 atm
Total Mass          ...    36.46 AMU
Quasi RRHO          ...     True
Cut-Off Frequency   ...     1.00 cm^-1
The molecule is recognized as being linear

Throughout the following assumptions are being made:
  (1) The electronic state is orbitally nondegenerate
  (2) There are no thermally accessible electronically excited states
  (3) Hindered rotations indicated by low frequency modes are not
      treated as such but are treated as vibrations and this may
      cause some error
  (4) All equations used are the standard statistical mechanics
      equations for an ideal gas
  (5) All vibrations are strictly harmonic

freq.     809.77  E(vib)   ...       0.05

------------
INNER ENERGY
------------

The inner energy is: U= E(el) + E(ZPE) + E(vib) + E(rot) + E(trans)
    E(el)   - is the total energy from the electronic structure calculation
              = E(kin-el) + E(nuc-el) + E(el-el) + E(nuc-nuc)
    E(ZPE)  - the the zero temperature vibrational energy from the frequency calculation
    E(vib)  - the the finite temperature correction to E(ZPE) due to population
              of excited vibrational states
    E(rot)  - is the rotational thermal energy
    E(trans)- is the translational thermal energy

Summary of contributions to the inner energy U:
Electronic energy                ...   -459.12871500 Eh
Zero point energy                ...      0.00184480 Eh       1.16 kcal/mol
Thermal vibrational correction   ...      0.00007564 Eh       0.05 kcal/mol
Thermal rotational correction    ...      0.00094418 Eh       0.59 kcal/mol
Thermal translational correction ...      0.00141627 Eh       0.89 kcal/mol
-----------------------------------------------------------------------
Total thermal energy                   -459.12443411 Eh

Summary of corrections to the electronic energy:
(perhaps to be used in another calculation)
Total thermal correction                  0.00243609 Eh       1.53 kcal/mol
Non-thermal (ZPE) correction              0.00184480 Eh       1.16 kcal/mol
-----------------------------------------------------------------------
Total correction                          0.00428089 Eh       2.69 kcal/mol

--------
ENTHALPY
--------

The enthalpy is H = U + kB*T
                kB is Boltzmann's constant
Total thermal energy              ...   -459.12443411 Eh
Thermal Enthalpy correction       ...      0.00094421 Eh       0.59 kcal/mol
-----------------------------------------------------------------------
Total Enthalpy                    ...   -459.12348990 Eh

Note: Rotational entropy computed according to Herzberg
Infrared and Raman Spectra, Chapter V,1, Van Nostrand Reinhold, 1945
Point Group:  C(inf)v, Symmetry Number:   1
Rotational constants in cm-1:     0.000000     3.723251     3.723251

Vibrational entropy computed according to the QRRHO of S. Grimme
Chem.Eur.J. 2012 18 9955 using a reference frequency of 100.0 cm-1

-------
ENTROPY
-------

The entropy contributions are T*S = T*(S(el)+S(vib)+S(rot)+S(trans))
     S(el)   - electronic entropy
     S(vib)  - vibrational entropy
     S(rot)  - rotational entropy
     S(trans)- translational entropy
The entropies will be listed as multiplied by the temperature to get
units of energy

Electronic entropy                ...      0.00000000 Eh      0.00 kcal/mol
Vibrational entropy               ...      0.00009486 Eh      0.06 kcal/mol
Rotational entropy                ...      0.00473905 Eh      2.97 kcal/mol
Translational entropy             ...      0.01744233 Eh     10.95 kcal/mol
-----------------------------------------------------------------------
Final entropy term                ...      0.02227623 Eh     13.98 kcal/mol

-------------------
GIBBS FREE ENERGY
-------------------

The Gibbs free energy is G = H - T*S

Total enthalpy                    ...   -459.12348990 Eh
Total entropy correction          ...     -0.02227623 Eh    -13.98 kcal/mol
-----------------------------------------------------------------------
Final Gibbs free energy         ...   -459.14576614 Eh

For completeness - the Gibbs free energy minus the electronic energy
G-E(el)                           ...     -0.01705113 Eh    -10.70 kcal/mol

                             ****ORCA TERMINATED NORMALLY****
TOTAL RUN TIME: 0 days 0 hours 3 minutes 1 seconds 143 msec
