                         Program Version 6.0.1  -  RELEASE   -
|  1> ! B3LYP def2-TZVPP Opt TightOpt VeryTightSCF
|  2>
|  3> ! Freq
|  4> ! NumFreq
|  5>
|  6> %scf
|  7>    MaxIter 400          # MÃ¡ximo de iteraciones permitidas para el SCF
|  8> end
|  9>
| 10> %geom
| 11>    TolRMSD 1.0e-5
| 12>    TolMAXD 1.0e-4
| 13>    TolRMSG 1.0e-5
| 14>    TolMAXG 1.0e-4
| 15> end
| 16>
| 17> %tddft
| 18>   nroots 10
| 19> end
| 20>
| 21> %pal
| 22>    nprocs 1
| 23> end
| 24>
| 25>
| 26> %MaxCore 4000            # Memoria mÃ¡xima por nÃºcleo (en MB)
| 27>
| 28> * xyz 0 1
| 29> Cl     0.000000    0.000000    0.074144
| 30> H      0.000000    0.000000   -1.208014
| 31> **                         ****END OF INPUT****
 Total Charge           Charge          ....    0
 Multiplicity           Mult            ....    1
 Number of Electrons    NEL             ....   18
FINAL SINGLE POINT ENERGY      -460.486022568947
FINAL SINGLE POINT ENERGY      -460.523811714788
FINAL SINGLE POINT ENERGY      -460.547006984936
FINAL SINGLE POINT ENERGY      -460.560404171537
FINAL SINGLE POINT ENERGY      -460.567070336009
FINAL SINGLE POINT ENERGY      -460.568933790124
FINAL SINGLE POINT ENERGY      -460.569246892835
FINAL SINGLE POINT ENERGY      -460.569278835859
FINAL SINGLE POINT ENERGY      -460.569281709954
FINAL SINGLE POINT ENERGY      -460.569280769671
                    ***********************HURRAY********************

CARTESIAN COORDINATES (ANGSTROEM)
---------------------------------
  Cl     0.000000    0.000000    0.484092
  H      0.000000    0.000000   -1.617962

 Multiplicity           Mult            ....    1
 Number of Electrons    NEL             ....   18
 Basis Dimension        Dim             ....   56

ORBITAL ENERGIES
----------------

  NO   OCC          E(Eh)            E(eV)
   0   2.0000    -101.541055     -2763.0726
   1   2.0000      -9.467874      -257.6339
   2   2.0000      -7.231747      -196.7858
   3   2.0000      -7.220205      -196.4718
   4   2.0000      -7.220205      -196.4718
   5   2.0000      -0.792589       -21.5675
   6   2.0000      -0.378642       -10.3034
   7   2.0000      -0.318944        -8.6789
   8   2.0000      -0.318944        -8.6789
   9   0.0000      -0.185046        -5.0354
  10   0.0000       0.218922         5.9572
  11   0.0000       0.338324         9.2063
  12   0.0000       0.338324         9.2063
  13   0.0000       0.341645         9.2966

----------------------------------------------------------------------------------------------------
                     ABSORPTION SPECTRUM VIA TRANSITION ELECTRIC DIPOLE MOMENTS
----------------------------------------------------------------------------------------------------
     Transition      Energy     Energy  Wavelength fosc(D2)      D2        DX        DY        DZ
                      (eV)      (cm-1)    (nm)                 (au**2)    (au)      (au)      (au)
----------------------------------------------------------------------------------------------------
  0-1A  ->  1-1A    2.262841   18251.0   547.9   0.000260067   0.00469   0.02328   0.06442   0.00000
  0-1A  ->  2-1A    2.262841   18251.0   547.9   0.000260067   0.00469   0.06442  -0.02328  -0.00000
  0-1A  ->  3-1A    8.249830   66539.4   150.3   1.302609694   6.44483   0.00000   0.00000   2.53867
  0-1A  ->  4-1A   13.521592  109059.0    91.7   0.042698589   0.12889   0.14300   0.32931   0.00000
  0-1A  ->  5-1A   13.521592  109059.0    91.7   0.042698590   0.12889  -0.32931   0.14300  -0.00000
  0-1A  ->  6-1A   15.480083  124855.3    80.1   0.025951292   0.06843   0.00000   0.00000  -0.26159
  0-1A  ->  7-1A   15.802370  127454.7    78.5   0.000498561   0.00129   0.00000  -0.00000   0.03589
  0-1A  ->  8-1A   16.129360  130092.1    76.9   0.000000000   0.00000   0.00000   0.00000   0.00000
  0-1A  ->  9-1A   16.200623  130666.8    76.5   0.000000000   0.00000   0.00000  -0.00000  -0.00000
  0-1A  -> 10-1A   16.202518  130682.1    76.5   0.000000000   0.00000  -0.00000  -0.00000  -0.00000

MULLIKEN ATOMIC CHARGES
-----------------------
   0 Cl:   -0.011850
   1 H :    0.011850
Sum of atomic charges:    0.0000000

LOEWDIN ATOMIC CHARGES
----------------------
   0 Cl:    0.044016
   1 H :   -0.044016

  Mayer bond orders larger than 0.100000
B(  0-Cl,  1-H ) :   0.1381

FINAL SINGLE POINT ENERGY      -460.569280267411

DIPOLE MOMENT
-------------

Method             : TDA/CIS
Type of density    : Electron Density
Level              : Relaxed density
State              :   1
Multiplicity       :   1
Irrep              :   0
Energy             :     0.0000000000000000 Eh
Relativity type    :
Basis              : AO
                                X                 Y                 Z
Electronic contribution:      0.000000008       0.000000022       2.021147393
Nuclear contribution   :      0.000000000       0.000000000      -1.995577681
                        -----------------------------------------
Total Dipole Moment    :      0.000000008       0.000000022       0.025569712
                        -----------------------------------------
Magnitude (a.u.)       :      0.025569712
Magnitude (Debye)      :      0.064993043

VIBRATIONAL FREQUENCIES
-----------------------

Scaling factor for frequencies =  1.000000000  (already applied!)

     0:       0.00 cm**-1
     1:       0.00 cm**-1
     2:       0.00 cm**-1
     3:       0.00 cm**-1
     4:       0.00 cm**-1
     5:     875.58 cm**-1

IR SPECTRUM
-----------

 Mode   freq       eps      Int      T**2         TX        TY        TZ
       cm**-1   L/(mol*cm) km/mol    a.u.
----------------------------------------------------------------------------
  5:    875.58   0.004550   22.99  0.001622  ( 0.000000  0.000000  0.040268)

--------------------------
THERMOCHEMISTRY AT 298.15K
--------------------------

Temperature         ...   298.15 K
Pressure            ...     1.00 atm
Total Mass          ...    36.46 AMU
Quasi RRHO          ...     True
Cut-Off Frequency   ...     1.00 cm^-1
The molecule is recognized as being linear

Throughout the following assumptions are being made:
  (1) The electronic state is orbitally nondegenerate
  (2) There are no thermally accessible electronically excited states
  (3) Hindered rotations indicated by low frequency modes are not
      treated as such but are treated as vibrations and this may
      cause some error
  (4) All equations used are the standard statistical mechanics
      equations for an ideal gas
  (5) All vibrations are strictly harmonic

freq.     875.58  E(vib)   ...       0.04

------------
INNER ENERGY
------------

The inner energy is: U= E(el) + E(ZPE) + E(vib) + E(rot) + E(trans)
    E(el)   - is the total energy from the electronic structure calculation
              = E(kin-el) + E(nuc-el) + E(el-el) + E(nuc-nuc)
    E(ZPE)  - the the zero temperature vibrational energy from the frequency calculation
    E(vib)  - the the finite temperature correction to E(ZPE) due to population
              of excited vibrational states
    E(rot)  - is the rotational thermal energy
    E(trans)- is the translational thermal energy

Summary of contributions to the inner energy U:
Electronic energy                ...   -460.56928037 Eh
Zero point energy                ...      0.00199471 Eh       1.25 kcal/mol
Thermal vibrational correction   ...      0.00005920 Eh       0.04 kcal/mol
Thermal rotational correction    ...      0.00094418 Eh       0.59 kcal/mol
Thermal translational correction ...      0.00141627 Eh       0.89 kcal/mol
-----------------------------------------------------------------------
Total thermal energy                   -460.56486600 Eh

Summary of corrections to the electronic energy:
(perhaps to be used in another calculation)
Total thermal correction                  0.00241966 Eh       1.52 kcal/mol
Non-thermal (ZPE) correction              0.00199471 Eh       1.25 kcal/mol
-----------------------------------------------------------------------
Total correction                          0.00441437 Eh       2.77 kcal/mol

--------
ENTHALPY
--------

The enthalpy is H = U + kB*T
                kB is Boltzmann's constant
Total thermal energy              ...   -460.56486600 Eh
Thermal Enthalpy correction       ...      0.00094421 Eh       0.59 kcal/mol
-----------------------------------------------------------------------
Total Enthalpy                    ...   -460.56392179 Eh

Note: Rotational entropy computed according to Herzberg
Infrared and Raman Spectra, Chapter V,1, Van Nostrand Reinhold, 1945
Point Group:  C(inf)v, Symmetry Number:   1
Rotational constants in cm-1:     0.000000     3.892458     3.892458

Vibrational entropy computed according to the QRRHO of S. Grimme
Chem.Eur.J. 2012 18 9955 using a reference frequency of 100.0 cm-1

-------
ENTROPY
-------

The entropy contributions are T*S = T*(S(el)+S(vib)+S(rot)+S(trans))
     S(el)   - electronic entropy
     S(vib)  - vibrational entropy
     S(rot)  - rotational entropy
     S(trans)- translational entropy
The entropies will be listed as multiplied by the temperature to get
units of energy

Electronic entropy                ...      0.00000000 Eh      0.00 kcal/mol
Vibrational entropy               ...      0.00007315 Eh      0.05 kcal/mol
Rotational entropy                ...      0.00469708 Eh      2.95 kcal/mol
Translational entropy             ...      0.01744233 Eh     10.95 kcal/mol
-----------------------------------------------------------------------
Final entropy term                ...      0.02221256 Eh     13.94 kcal/mol

-------------------
GIBBS FREE ENERGY
-------------------

The Gibbs free energy is G = H - T*S

Total enthalpy                    ...   -460.56392179 Eh
Total entropy correction          ...     -0.02221256 Eh    -13.94 kcal/mol
-----------------------------------------------------------------------
Final Gibbs free energy         ...   -460.58613435 Eh

For completeness - the Gibbs free energy minus the electronic energy
G-E(el)                           ...     -0.01685399 Eh    -10.58 kcal/mol

                             ****ORCA TERMINATED NORMALLY****
TOTAL RUN TIME: 0 days 0 hours 3 minutes 18 seconds 608 msec
