                         Program Version 6.0.1  -  RELEASE   -
|  1> ! LDA def2-TZVPP Opt TightOpt VeryTightSCF
|  2>
|  3> %scf
|  4>    MaxIter 400          # MÃ¡ximo de iteraciones permitidas para el SCF
|  5> end
|  6>
|  7> %geom
|  8>    TolRMSD 1.0e-5
|  9>    TolMAXD 1.0e-4
| 10>    TolRMSG 1.0e-5
| 11>    TolMAXG 1.0e-4
| 12> end
| 13>
| 14> %pal
| 15>    nprocs 1
| 16> end
| 17>
| 18>
| 19> %MaxCore 4000            # Memoria mÃ¡xima por nÃºcleo (en MB)
| 20>
| 21> * xyz 0 1
| 22> N       0.00000000    0.00000000    0.11361500
| 23> H       0.00000000    0.93799100   -0.26510100
| 24> H      -0.81232400   -0.46899600   -0.26510100
| 25> H       0.81232400   -0.46899600   -0.26510100
| 26> **                         ****END OF INPUT****
 Total Charge           Charge          ....    0
 Multiplicity           Mult            ....    1
 Number of Electrons    NEL             ....   10
FINAL SINGLE POINT ENERGY       -56.103609595896
FINAL SINGLE POINT ENERGY       -56.103873057586
FINAL SINGLE POINT ENERGY       -56.103874207055
FINAL SINGLE POINT ENERGY       -56.103874208245
                    ***********************HURRAY********************

CARTESIAN COORDINATES (ANGSTROEM)
---------------------------------
  N      0.000000    0.000004    0.113218
  H     -0.000000    0.949170   -0.264968
  H     -0.822005   -0.474587   -0.264969
  H      0.822005   -0.474587   -0.264969

 Multiplicity           Mult            ....    1
 Number of Electrons    NEL             ....   10
 Basis Dimension        Dim             ....   73

ORBITAL ENERGIES
----------------

  NO   OCC          E(Eh)            E(eV)
   0   2.0000     -13.833558      -376.4303
   1   2.0000      -0.765599       -20.8330
   2   2.0000      -0.410937       -11.1822
   3   2.0000      -0.410935       -11.1821
   4   2.0000      -0.222453        -6.0532
   5   0.0000       0.006148         0.1673
   6   0.0000       0.087616         2.3842
   7   0.0000       0.087616         2.3842
   8   0.0000       0.267834         7.2881
   9   0.0000       0.267835         7.2882

MULLIKEN ATOMIC CHARGES
-----------------------
   0 N :   -0.446733
   1 H :    0.148912
   2 H :    0.148910
   3 H :    0.148910
Sum of atomic charges:   -0.0000000

LOEWDIN ATOMIC CHARGES
----------------------
   0 N :    0.148286
   1 H :   -0.049432
   2 H :   -0.049427
   3 H :   -0.049427

  Mayer bond orders larger than 0.100000
B(  0-N ,  1-H ) :   1.0048 B(  0-N ,  2-H ) :   1.0048 B(  0-N ,  3-H ) :   1.0048

FINAL SINGLE POINT ENERGY       -56.103874208495

DIPOLE MOMENT
-------------

Method             : SCF
Type of density    : Electron Density
Multiplicity       :   1
Irrep              :   0
Energy             :   -56.1038742084950641 Eh
Relativity type    :
Basis              : AO
                                X                 Y                 Z
Electronic contribution:      0.000000000       0.000008771       0.234504716
Nuclear contribution   :     -0.000000000      -0.000011681      -0.875051178
                        -----------------------------------------
Total Dipole Moment    :     -0.000000000      -0.000002910      -0.640546462
                        -----------------------------------------
Magnitude (a.u.)       :      0.640546462
Magnitude (Debye)      :      1.628139716

Rotational constants in cm-1:             9.812883             9.812867             6.187662
Rotational constants in MHz :        294182.823931        294182.365372        185501.426883

                             ****ORCA TERMINATED NORMALLY****
TOTAL RUN TIME: 0 days 0 hours 0 minutes 5 seconds 999 msec
