                         Program Version 6.0.1  -  RELEASE   -
|  1> ! PBE0 def2-TZVPP Opt TightOpt VeryTightSCF
|  2>
|  3> %scf
|  4>    MaxIter 400          # MÃ¡ximo de iteraciones permitidas para el SCF
|  5> end
|  6>
|  7> %geom
|  8>    TolRMSD 1.0e-5
|  9>    TolMAXD 1.0e-4
| 10>    TolRMSG 1.0e-5
| 11>    TolMAXG 1.0e-4
| 12> end
| 13>
| 14> %pal
| 15>    nprocs 1
| 16> end
| 17>
| 18>
| 19> %MaxCore 4000            # Memoria mÃ¡xima por nÃºcleo (en MB)
| 20>
| 21> * xyz 0 1
| 22> N       0.00000000    0.00000000    0.11361500
| 23> H       0.00000000    0.93799100   -0.26510100
| 24> H      -0.81232400   -0.46899600   -0.26510100
| 25> H       0.81232400   -0.46899600   -0.26510100
| 26> **                         ****END OF INPUT****
 Total Charge           Charge          ....    0
 Multiplicity           Mult            ....    1
 Number of Electrons    NEL             ....   10
FINAL SINGLE POINT ENERGY       -56.515920915286
FINAL SINGLE POINT ENERGY       -56.515920995433
FINAL SINGLE POINT ENERGY       -56.515921007373
FINAL SINGLE POINT ENERGY       -56.515921012877
FINAL SINGLE POINT ENERGY       -56.515921015294
                    ***********************HURRAY********************

CARTESIAN COORDINATES (ANGSTROEM)
---------------------------------
  N     -0.000000    0.000009    0.113901
  H      0.000000    0.938057   -0.265194
  H     -0.812376   -0.469034   -0.265198
  H      0.812376   -0.469034   -0.265198

 Multiplicity           Mult            ....    1
 Number of Electrons    NEL             ....   10
 Basis Dimension        Dim             ....   73

ORBITAL ENERGIES
----------------

  NO   OCC          E(Eh)            E(eV)
   0   2.0000     -14.354562      -390.6075
   1   2.0000      -0.874476       -23.7957
   2   2.0000      -0.473255       -12.8779
   3   2.0000      -0.473244       -12.8776
   4   2.0000      -0.279328        -7.6009
   5   0.0000       0.038133         1.0376
   6   0.0000       0.122447         3.3320
   7   0.0000       0.122451         3.3321
   8   0.0000       0.312080         8.4921
   9   0.0000       0.312084         8.4922

MULLIKEN ATOMIC CHARGES
-----------------------
   0 N :   -0.483526
   1 H :    0.161135
   2 H :    0.161196
   3 H :    0.161196
Sum of atomic charges:   -0.0000000

LOEWDIN ATOMIC CHARGES
----------------------
   0 N :    0.180593
   1 H :   -0.060206
   2 H :   -0.060193
   3 H :   -0.060193

  Mayer bond orders larger than 0.100000
B(  0-N ,  1-H ) :   1.0015 B(  0-N ,  2-H ) :   1.0015 B(  0-N ,  3-H ) :   1.0015

FINAL SINGLE POINT ENERGY       -56.515921015004

DIPOLE MOMENT
-------------

Method             : SCF
Type of density    : Electron Density
Multiplicity       :   1
Irrep              :   0
Energy             :   -56.5159210150036628 Eh
Relativity type    :
Basis              : AO
                                X                 Y                 Z
Electronic contribution:     -0.000000015       0.000039971       0.240999868
Nuclear contribution   :      0.000000003      -0.000028726      -0.877158488
                        -----------------------------------------
Total Dipole Moment    :     -0.000000012       0.000011245      -0.636158620
                        -----------------------------------------
Magnitude (a.u.)       :      0.636158620
Magnitude (Debye)      :      1.616986709

Rotational constants in cm-1:             9.987370             9.987203             6.335162
Rotational constants in MHz :        299413.816310        299408.825657        189923.377968

                             ****ORCA TERMINATED NORMALLY****
TOTAL RUN TIME: 0 days 0 hours 0 minutes 20 seconds 9 msec
